# vtk DataFile Version 3.0
#This file was generated by the deal.II library on 2021/7/19 at 11:50:28
ASCII
DATASET UNSTRUCTURED_GRID

POINTS 512 double
0 0 0
0.00390625 0 0
0.00390625 0 0
0.0078125 0 0
0.0078125 0 0
0.0117188 0 0
0.0117188 0 0
0.015625 0 0
0.015625 0 0
0.0195312 0 0
0.0195312 0 0
0.0234375 0 0
0.0234375 0 0
0.0273438 0 0
0.0273438 0 0
0.03125 0 0
0.03125 0 0
0.0351562 0 0
0.0351562 0 0
0.0390625 0 0
0.0390625 0 0
0.0429688 0 0
0.0429688 0 0
0.046875 0 0
0.046875 0 0
0.0507812 0 0
0.0507812 0 0
0.0546875 0 0
0.0546875 0 0
0.0585938 0 0
0.0585938 0 0
0.0625 0 0
0.0625 0 0
0.0664062 0 0
0.0664062 0 0
0.0703125 0 0
0.0703125 0 0
0.0742188 0 0
0.0742188 0 0
0.078125 0 0
0.078125 0 0
0.0820312 0 0
0.0820312 0 0
0.0859375 0 0
0.0859375 0 0
0.0898438 0 0
0.0898438 0 0
0.09375 0 0
0.09375 0 0
0.0976562 0 0
0.0976562 0 0
0.101562 0 0
0.101562 0 0
0.105469 0 0
0.105469 0 0
0.109375 0 0
0.109375 0 0
0.113281 0 0
0.113281 0 0
0.117188 0 0
0.117188 0 0
0.121094 0 0
0.121094 0 0
0.125 0 0
0.125 0 0
0.128906 0 0
0.128906 0 0
0.132812 0 0
0.132812 0 0
0.136719 0 0
0.136719 0 0
0.140625 0 0
0.140625 0 0
0.144531 0 0
0.144531 0 0
0.148438 0 0
0.148438 0 0
0.152344 0 0
0.152344 0 0
0.15625 0 0
0.15625 0 0
0.160156 0 0
0.160156 0 0
0.164062 0 0
0.164062 0 0
0.167969 0 0
0.167969 0 0
0.171875 0 0
0.171875 0 0
0.175781 0 0
0.175781 0 0
0.179688 0 0
0.179688 0 0
0.183594 0 0
0.183594 0 0
0.1875 0 0
0.1875 0 0
0.191406 0 0
0.191406 0 0
0.195312 0 0
0.195312 0 0
0.199219 0 0
0.199219 0 0
0.203125 0 0
0.203125 0 0
0.207031 0 0
0.207031 0 0
0.210938 0 0
0.210938 0 0
0.214844 0 0
0.214844 0 0
0.21875 0 0
0.21875 0 0
0.222656 0 0
0.222656 0 0
0.226562 0 0
0.226562 0 0
0.230469 0 0
0.230469 0 0
0.234375 0 0
0.234375 0 0
0.238281 0 0
0.238281 0 0
0.242188 0 0
0.242188 0 0
0.246094 0 0
0.246094 0 0
0.25 0 0
0.25 0 0
0.253906 0 0
0.253906 0 0
0.257812 0 0
0.257812 0 0
0.261719 0 0
0.261719 0 0
0.265625 0 0
0.265625 0 0
0.269531 0 0
0.269531 0 0
0.273438 0 0
0.273438 0 0
0.277344 0 0
0.277344 0 0
0.28125 0 0
0.28125 0 0
0.285156 0 0
0.285156 0 0
0.289062 0 0
0.289062 0 0
0.292969 0 0
0.292969 0 0
0.296875 0 0
0.296875 0 0
0.300781 0 0
0.300781 0 0
0.304688 0 0
0.304688 0 0
0.308594 0 0
0.308594 0 0
0.3125 0 0
0.3125 0 0
0.316406 0 0
0.316406 0 0
0.320312 0 0
0.320312 0 0
0.324219 0 0
0.324219 0 0
0.328125 0 0
0.328125 0 0
0.332031 0 0
0.332031 0 0
0.335938 0 0
0.335938 0 0
0.339844 0 0
0.339844 0 0
0.34375 0 0
0.34375 0 0
0.347656 0 0
0.347656 0 0
0.351562 0 0
0.351562 0 0
0.355469 0 0
0.355469 0 0
0.359375 0 0
0.359375 0 0
0.363281 0 0
0.363281 0 0
0.367188 0 0
0.367188 0 0
0.371094 0 0
0.371094 0 0
0.375 0 0
0.375 0 0
0.378906 0 0
0.378906 0 0
0.382812 0 0
0.382812 0 0
0.386719 0 0
0.386719 0 0
0.390625 0 0
0.390625 0 0
0.394531 0 0
0.394531 0 0
0.398438 0 0
0.398438 0 0
0.402344 0 0
0.402344 0 0
0.40625 0 0
0.40625 0 0
0.410156 0 0
0.410156 0 0
0.414062 0 0
0.414062 0 0
0.417969 0 0
0.417969 0 0
0.421875 0 0
0.421875 0 0
0.425781 0 0
0.425781 0 0
0.429688 0 0
0.429688 0 0
0.433594 0 0
0.433594 0 0
0.4375 0 0
0.4375 0 0
0.441406 0 0
0.441406 0 0
0.445312 0 0
0.445312 0 0
0.449219 0 0
0.449219 0 0
0.453125 0 0
0.453125 0 0
0.457031 0 0
0.457031 0 0
0.460938 0 0
0.460938 0 0
0.464844 0 0
0.464844 0 0
0.46875 0 0
0.46875 0 0
0.472656 0 0
0.472656 0 0
0.476562 0 0
0.476562 0 0
0.480469 0 0
0.480469 0 0
0.484375 0 0
0.484375 0 0
0.488281 0 0
0.488281 0 0
0.492188 0 0
0.492188 0 0
0.496094 0 0
0.496094 0 0
0.5 0 0
0.5 0 0
0.503906 0 0
0.503906 0 0
0.507812 0 0
0.507812 0 0
0.511719 0 0
0.511719 0 0
0.515625 0 0
0.515625 0 0
0.519531 0 0
0.519531 0 0
0.523438 0 0
0.523438 0 0
0.527344 0 0
0.527344 0 0
0.53125 0 0
0.53125 0 0
0.535156 0 0
0.535156 0 0
0.539062 0 0
0.539062 0 0
0.542969 0 0
0.542969 0 0
0.546875 0 0
0.546875 0 0
0.550781 0 0
0.550781 0 0
0.554688 0 0
0.554688 0 0
0.558594 0 0
0.558594 0 0
0.5625 0 0
0.5625 0 0
0.566406 0 0
0.566406 0 0
0.570312 0 0
0.570312 0 0
0.574219 0 0
0.574219 0 0
0.578125 0 0
0.578125 0 0
0.582031 0 0
0.582031 0 0
0.585938 0 0
0.585938 0 0
0.589844 0 0
0.589844 0 0
0.59375 0 0
0.59375 0 0
0.597656 0 0
0.597656 0 0
0.601562 0 0
0.601562 0 0
0.605469 0 0
0.605469 0 0
0.609375 0 0
0.609375 0 0
0.613281 0 0
0.613281 0 0
0.617188 0 0
0.617188 0 0
0.621094 0 0
0.621094 0 0
0.625 0 0
0.625 0 0
0.628906 0 0
0.628906 0 0
0.632812 0 0
0.632812 0 0
0.636719 0 0
0.636719 0 0
0.640625 0 0
0.640625 0 0
0.644531 0 0
0.644531 0 0
0.648438 0 0
0.648438 0 0
0.652344 0 0
0.652344 0 0
0.65625 0 0
0.65625 0 0
0.660156 0 0
0.660156 0 0
0.664062 0 0
0.664062 0 0
0.667969 0 0
0.667969 0 0
0.671875 0 0
0.671875 0 0
0.675781 0 0
0.675781 0 0
0.679688 0 0
0.679688 0 0
0.683594 0 0
0.683594 0 0
0.6875 0 0
0.6875 0 0
0.691406 0 0
0.691406 0 0
0.695312 0 0
0.695312 0 0
0.699219 0 0
0.699219 0 0
0.703125 0 0
0.703125 0 0
0.707031 0 0
0.707031 0 0
0.710938 0 0
0.710938 0 0
0.714844 0 0
0.714844 0 0
0.71875 0 0
0.71875 0 0
0.722656 0 0
0.722656 0 0
0.726562 0 0
0.726562 0 0
0.730469 0 0
0.730469 0 0
0.734375 0 0
0.734375 0 0
0.738281 0 0
0.738281 0 0
0.742188 0 0
0.742188 0 0
0.746094 0 0
0.746094 0 0
0.75 0 0
0.75 0 0
0.753906 0 0
0.753906 0 0
0.757812 0 0
0.757812 0 0
0.761719 0 0
0.761719 0 0
0.765625 0 0
0.765625 0 0
0.769531 0 0
0.769531 0 0
0.773438 0 0
0.773438 0 0
0.777344 0 0
0.777344 0 0
0.78125 0 0
0.78125 0 0
0.785156 0 0
0.785156 0 0
0.789062 0 0
0.789062 0 0
0.792969 0 0
0.792969 0 0
0.796875 0 0
0.796875 0 0
0.800781 0 0
0.800781 0 0
0.804688 0 0
0.804688 0 0
0.808594 0 0
0.808594 0 0
0.8125 0 0
0.8125 0 0
0.816406 0 0
0.816406 0 0
0.820312 0 0
0.820312 0 0
0.824219 0 0
0.824219 0 0
0.828125 0 0
0.828125 0 0
0.832031 0 0
0.832031 0 0
0.835938 0 0
0.835938 0 0
0.839844 0 0
0.839844 0 0
0.84375 0 0
0.84375 0 0
0.847656 0 0
0.847656 0 0
0.851562 0 0
0.851562 0 0
0.855469 0 0
0.855469 0 0
0.859375 0 0
0.859375 0 0
0.863281 0 0
0.863281 0 0
0.867188 0 0
0.867188 0 0
0.871094 0 0
0.871094 0 0
0.875 0 0
0.875 0 0
0.878906 0 0
0.878906 0 0
0.882812 0 0
0.882812 0 0
0.886719 0 0
0.886719 0 0
0.890625 0 0
0.890625 0 0
0.894531 0 0
0.894531 0 0
0.898438 0 0
0.898438 0 0
0.902344 0 0
0.902344 0 0
0.90625 0 0
0.90625 0 0
0.910156 0 0
0.910156 0 0
0.914062 0 0
0.914062 0 0
0.917969 0 0
0.917969 0 0
0.921875 0 0
0.921875 0 0
0.925781 0 0
0.925781 0 0
0.929688 0 0
0.929688 0 0
0.933594 0 0
0.933594 0 0
0.9375 0 0
0.9375 0 0
0.941406 0 0
0.941406 0 0
0.945312 0 0
0.945312 0 0
0.949219 0 0
0.949219 0 0
0.953125 0 0
0.953125 0 0
0.957031 0 0
0.957031 0 0
0.960938 0 0
0.960938 0 0
0.964844 0 0
0.964844 0 0
0.96875 0 0
0.96875 0 0
0.972656 0 0
0.972656 0 0
0.976562 0 0
0.976562 0 0
0.980469 0 0
0.980469 0 0
0.984375 0 0
0.984375 0 0
0.988281 0 0
0.988281 0 0
0.992188 0 0
0.992188 0 0
0.996094 0 0
0.996094 0 0
1 0 0

CELLS 256 768
2	0	1
2	2	3
2	4	5
2	6	7
2	8	9
2	10	11
2	12	13
2	14	15
2	16	17
2	18	19
2	20	21
2	22	23
2	24	25
2	26	27
2	28	29
2	30	31
2	32	33
2	34	35
2	36	37
2	38	39
2	40	41
2	42	43
2	44	45
2	46	47
2	48	49
2	50	51
2	52	53
2	54	55
2	56	57
2	58	59
2	60	61
2	62	63
2	64	65
2	66	67
2	68	69
2	70	71
2	72	73
2	74	75
2	76	77
2	78	79
2	80	81
2	82	83
2	84	85
2	86	87
2	88	89
2	90	91
2	92	93
2	94	95
2	96	97
2	98	99
2	100	101
2	102	103
2	104	105
2	106	107
2	108	109
2	110	111
2	112	113
2	114	115
2	116	117
2	118	119
2	120	121
2	122	123
2	124	125
2	126	127
2	128	129
2	130	131
2	132	133
2	134	135
2	136	137
2	138	139
2	140	141
2	142	143
2	144	145
2	146	147
2	148	149
2	150	151
2	152	153
2	154	155
2	156	157
2	158	159
2	160	161
2	162	163
2	164	165
2	166	167
2	168	169
2	170	171
2	172	173
2	174	175
2	176	177
2	178	179
2	180	181
2	182	183
2	184	185
2	186	187
2	188	189
2	190	191
2	192	193
2	194	195
2	196	197
2	198	199
2	200	201
2	202	203
2	204	205
2	206	207
2	208	209
2	210	211
2	212	213
2	214	215
2	216	217
2	218	219
2	220	221
2	222	223
2	224	225
2	226	227
2	228	229
2	230	231
2	232	233
2	234	235
2	236	237
2	238	239
2	240	241
2	242	243
2	244	245
2	246	247
2	248	249
2	250	251
2	252	253
2	254	255
2	256	257
2	258	259
2	260	261
2	262	263
2	264	265
2	266	267
2	268	269
2	270	271
2	272	273
2	274	275
2	276	277
2	278	279
2	280	281
2	282	283
2	284	285
2	286	287
2	288	289
2	290	291
2	292	293
2	294	295
2	296	297
2	298	299
2	300	301
2	302	303
2	304	305
2	306	307
2	308	309
2	310	311
2	312	313
2	314	315
2	316	317
2	318	319
2	320	321
2	322	323
2	324	325
2	326	327
2	328	329
2	330	331
2	332	333
2	334	335
2	336	337
2	338	339
2	340	341
2	342	343
2	344	345
2	346	347
2	348	349
2	350	351
2	352	353
2	354	355
2	356	357
2	358	359
2	360	361
2	362	363
2	364	365
2	366	367
2	368	369
2	370	371
2	372	373
2	374	375
2	376	377
2	378	379
2	380	381
2	382	383
2	384	385
2	386	387
2	388	389
2	390	391
2	392	393
2	394	395
2	396	397
2	398	399
2	400	401
2	402	403
2	404	405
2	406	407
2	408	409
2	410	411
2	412	413
2	414	415
2	416	417
2	418	419
2	420	421
2	422	423
2	424	425
2	426	427
2	428	429
2	430	431
2	432	433
2	434	435
2	436	437
2	438	439
2	440	441
2	442	443
2	444	445
2	446	447
2	448	449
2	450	451
2	452	453
2	454	455
2	456	457
2	458	459
2	460	461
2	462	463
2	464	465
2	466	467
2	468	469
2	470	471
2	472	473
2	474	475
2	476	477
2	478	479
2	480	481
2	482	483
2	484	485
2	486	487
2	488	489
2	490	491
2	492	493
2	494	495
2	496	497
2	498	499
2	500	501
2	502	503
2	504	505
2	506	507
2	508	509
2	510	511

CELL_TYPES 256
 3 3 3 3 3 3 3 3 3 3 3 3 3 3 3 3 3 3 3 3 3 3 3 3 3 3 3 3 3 3 3 3 3 3 3 3 3 3 3 3 3 3 3 3 3 3 3 3 3 3 3 3 3 3 3 3 3 3 3 3 3 3 3 3 3 3 3 3 3 3 3 3 3 3 3 3 3 3 3 3 3 3 3 3 3 3 3 3 3 3 3 3 3 3 3 3 3 3 3 3 3 3 3 3 3 3 3 3 3 3 3 3 3 3 3 3 3 3 3 3 3 3 3 3 3 3 3 3 3 3 3 3 3 3 3 3 3 3 3 3 3 3 3 3 3 3 3 3 3 3 3 3 3 3 3 3 3 3 3 3 3 3 3 3 3 3 3 3 3 3 3 3 3 3 3 3 3 3 3 3 3 3 3 3 3 3 3 3 3 3 3 3 3 3 3 3 3 3 3 3 3 3 3 3 3 3 3 3 3 3 3 3 3 3 3 3 3 3 3 3 3 3 3 3 3 3 3 3 3 3 3 3 3 3 3 3 3 3 3 3 3 3 3 3 3 3 3 3 3 3 3 3 3 3 3 3
POINT_DATA 512
SCALARS solution_0 double 1
LOOKUP_TABLE default
0.1 0.100414 0.100414 0.100875 0.100875 0.101384 0.101384 0.101939 0.101939 0.10254 0.10254 0.103186 0.103186 0.103877 0.103877 0.10461 0.10461 0.105384 0.105384 0.106199 0.106199 0.107052 0.107052 0.107941 0.107941 0.108865 0.108865 0.109821 0.109821 0.110808 0.110808 0.111823 0.111823 0.112863 0.112863 0.113927 0.113927 0.115011 0.115011 0.116114 0.116114 0.117232 0.117232 0.118362 0.118362 0.119503 0.119503 0.120651 0.120651 0.121804 0.121804 0.122958 0.122958 0.124111 0.124111 0.12526 0.12526 0.126403 0.126403 0.127536 0.127536 0.128657 0.128657 0.129762 0.129762 0.130851 0.130851 0.131918 0.131918 0.132964 0.132964 0.133984 0.133984 0.134976 0.134976 0.135939 0.135939 0.136869 0.136869 0.137766 0.137766 0.138626 0.138626 0.139448 0.139448 0.140231 0.140231 0.140973 0.140973 0.141672 0.141672 0.142327 0.142327 0.142937 0.142937 0.143502 0.143502 0.14402 0.14402 0.14449 0.14449 0.144914 0.144914 0.145289 0.145289 0.145617 0.145617 0.145898 0.145898 0.146131 0.146131 0.146318 0.146318 0.146459 0.146459 0.146555 0.146555 0.146608 0.146608 0.146617 0.146617 0.146586 0.146586 0.146515 0.146515 0.146407 0.146407 0.146262 0.146262 0.146084 0.146084 0.145874 0.145874 0.145634 0.145634 0.145368 0.145368 0.145077 0.145077 0.144764 0.144764 0.144431 0.144431 0.144082 0.144082 0.143719 0.143719 0.143345 0.143345 0.142963 0.142963 0.142576 0.142576 0.142186 0.142186 0.141797 0.141797 0.141411 0.141411 0.141032 0.141032 0.140662 0.140662 0.140304 0.140304 0.139962 0.139962 0.139636 0.139636 0.139332 0.139332 0.13905 0.13905 0.138794 0.138794 0.138566 0.138566 0.138369 0.138369 0.138204 0.138204 0.138073 0.138073 0.13798 0.13798 0.137924 0.137924 0.137909 0.137909 0.137936 0.137936 0.138006 0.138006 0.13812 0.13812 0.138279 0.138279 0.138484 0.138484 0.138736 0.138736 0.139036 0.139036 0.139383 0.139383 0.139778 0.139778 0.14022 0.14022 0.14071 0.14071 0.141246 0.141246 0.141829 0.141829 0.142457 0.142457 0.14313 0.14313 0.143846 0.143846 0.144605 0.144605 0.145403 0.145403 0.146241 0.146241 0.147116 0.147116 0.148026 0.148026 0.14897 0.14897 0.149945 0.149945 0.150949 0.150949 0.151979 0.151979 0.153034 0.153034 0.15411 0.15411 0.155206 0.155206 0.156318 0.156318 0.157444 0.157444 0.158581 0.158581 0.159726 0.159726 0.160877 0.160877 0.162031 0.162031 0.163185 0.163185 0.164336 0.164336 0.165482 0.165482 0.166619 0.166619 0.167745 0.167745 0.168857 0.168857 0.169952 0.169952 0.171029 0.171029 0.172083 0.172083 0.173114 0.173114 0.174118 0.174118 0.175093 0.175093 0.176036 0.176036 0.176946 0.176946 0.177821 0.177821 0.178659 0.178659 0.179458 0.179458 0.180216 0.180216 0.180932 0.180932 0.181605 0.181605 0.182234 0.182234 0.182816 0.182816 0.183353 0.183353 0.183843 0.183843 0.184285 0.184285 0.18468 0.18468 0.185027 0.185027 0.185326 0.185326 0.185579 0.185579 0.185784 0.185784 0.185943 0.185943 0.186057 0.186057 0.186127 0.186127 0.186154 0.186154 0.186139 0.186139 0.186083 0.186083 0.18599 0.18599 0.185859 0.185859 0.185694 0.185694 0.185497 0.185497 0.185269 0.185269 0.185013 0.185013 0.184731 0.184731 0.184426 0.184426 0.184101 0.184101 0.183759 0.183759 0.183401 0.183401 0.183031 0.183031 0.182652 0.182652 0.182266 0.182266 0.181877 0.181877 0.181487 0.181487 0.1811 0.1811 0.180718 0.180718 0.180344 0.180344 0.179981 0.179981 0.179632 0.179632 0.179299 0.179299 0.178986 0.178986 0.178695 0.178695 0.178429 0.178429 0.178189 0.178189 0.177979 0.177979 0.177801 0.177801 0.177656 0.177656 0.177548 0.177548 0.177477 0.177477 0.177445 0.177445 0.177455 0.177455 0.177508 0.177508 0.177604 0.177604 0.177745 0.177745 0.177931 0.177931 0.178165 0.178165 0.178445 0.178445 0.178773 0.178773 0.179149 0.179149 0.179572 0.179572 0.180043 0.180043 0.180561 0.180561 0.181125 0.181125 0.181736 0.181736 0.182391 0.182391 0.18309 0.18309 0.183831 0.183831 0.184614 0.184614 0.185437 0.185437 0.186297 0.186297 0.187193 0.187193 0.188124 0.188124 0.189086 0.189086 0.190079 0.190079 0.191099 0.191099 0.192144 0.192144 0.193212 0.193212 0.1943 0.1943 0.195406 0.195406 0.196527 0.196527 0.19766 0.19766 0.198802 0.198802 0.199951 0.199951 0.201105 0.201105 0.202259 0.202259 0.203411 0.203411 0.204559 0.204559 0.2057 0.2057 0.206831 0.206831 0.207949 0.207949 0.209051 0.209051 0.210136 0.210136 0.211199 0.211199 0.21224 0.21224 0.213255 0.213255 0.214241 0.214241 0.215198 0.215198 0.216121 0.216121 0.217011 0.217011 0.217864 0.217864 0.218678 0.218678 0.219453 0.219453 0.220186 0.220186 0.220876 0.220876 0.221523 0.221523 0.222124 0.222124 0.222679 0.222679 0.223188 0.223188 0.223649 0.223649 0.224063 
SCALARS solution_1 double 1
LOOKUP_TABLE default
0 0.00388425 0.00388425 0.00776313 0.00776313 0.0116361 0.0116361 0.0155027 0.0155027 0.0193624 0.0193624 0.0232148 0.0232148 0.0270595 0.0270595 0.0308963 0.0308963 0.034725 0.034725 0.0385453 0.0385453 0.0423573 0.0423573 0.046161 0.046161 0.0499564 0.0499564 0.0537438 0.0537438 0.0575233 0.0575233 0.0612955 0.0612955 0.0650606 0.0650606 0.0688193 0.0688193 0.072572 0.072572 0.0763194 0.0763194 0.0800623 0.0800623 0.0838013 0.0838013 0.0875372 0.0875372 0.091271 0.091271 0.0950033 0.0950033 0.0987351 0.0987351 0.102467 0.102467 0.106201 0.106201 0.109936 0.109936 0.113674 0.113674 0.117416 0.117416 0.121163 0.121163 0.124915 0.124915 0.128672 0.128672 0.132436 0.132436 0.136206 0.136206 0.139985 0.139985 0.14377 0.14377 0.147564 0.147564 0.151366 0.151366 0.155176 0.155176 0.158995 0.158995 0.162822 0.162822 0.166657 0.166657 0.170501 0.170501 0.174351 0.174351 0.17821 0.17821 0.182075 0.182075 0.185947 0.185947 0.189824 0.189824 0.193708 0.193708 0.197596 0.197596 0.201488 0.201488 0.205384 0.205384 0.209284 0.209284 0.213185 0.213185 0.217089 0.217089 0.220994 0.220994 0.2249 0.2249 0.228806 0.228806 0.232712 0.232712 0.236618 0.236618 0.240523 0.240523 0.244426 0.244426 0.248328 0.248328 0.252229 0.252229 0.256128 0.256128 0.260025 0.260025 0.26392 0.26392 0.267814 0.267814 0.271706 0.271706 0.275597 0.275597 0.279486 0.279486 0.283374 0.283374 0.287262 0.287262 0.291149 0.291149 0.295036 0.295036 0.298922 0.298922 0.30281 0.30281 0.306697 0.306697 0.310586 0.310586 0.314476 0.314476 0.318367 0.318367 0.32226 0.32226 0.326154 0.326154 0.33005 0.33005 0.333948 0.333948 0.337848 0.337848 0.341749 0.341749 0.345652 0.345652 0.349556 0.349556 0.353461 0.353461 0.357367 0.357367 0.361273 0.361273 0.365179 0.365179 0.369085 0.369085 0.372989 0.372989 0.376892 0.376892 0.380793 0.380793 0.384691 0.384691 0.388586 0.388586 0.392477 0.392477 0.396363 0.396363 0.400244 0.400244 0.404119 0.404119 0.407988 0.407988 0.411851 0.411851 0.415706 0.415706 0.419554 0.419554 0.423394 0.423394 0.427226 0.427226 0.43105 0.43105 0.434865 0.434865 0.438672 0.438672 0.442471 0.442471 0.446261 0.446261 0.450044 0.450044 0.453819 0.453819 0.457587 0.457587 0.461348 0.461348 0.465103 0.465103 0.468853 0.468853 0.472597 0.472597 0.476338 0.476338 0.480075 0.480075 0.483809 0.483809 0.487542 0.487542 0.491274 0.491274 0.495006 0.495006 0.498739 0.498739 0.502473 0.502473 0.50621 0.50621 0.509951 0.509951 0.513695 0.513695 0.517445 0.517445 0.5212 0.5212 0.524961 0.524961 0.528729 0.528729 0.532504 0.532504 0.536287 0.536287 0.540077 0.540077 0.543876 0.543876 0.547683 0.547683 0.551498 0.551498 0.555322 0.555322 0.559154 0.559154 0.562994 0.562994 0.566842 0.566842 0.570697 0.570697 0.57456 0.57456 0.578429 0.578429 0.582304 0.582304 0.586185 0.586185 0.590071 0.590071 0.593962 0.593962 0.597857 0.597857 0.601755 0.601755 0.605656 0.605656 0.609559 0.609559 0.613463 0.613463 0.617369 0.617369 0.621275 0.621275 0.625181 0.625181 0.629087 0.629087 0.632992 0.632992 0.636896 0.636896 0.640799 0.640799 0.6447 0.6447 0.6486 0.6486 0.652498 0.652498 0.656394 0.656394 0.660288 0.660288 0.664181 0.664181 0.668072 0.668072 0.671962 0.671962 0.675851 0.675851 0.679738 0.679738 0.683626 0.683626 0.687512 0.687512 0.691399 0.691399 0.695286 0.695286 0.699174 0.699174 0.703062 0.703062 0.706951 0.706951 0.710842 0.710842 0.714734 0.714734 0.718628 0.718628 0.722523 0.722523 0.72642 0.72642 0.730319 0.730319 0.73422 0.73422 0.738122 0.738122 0.742025 0.742025 0.74593 0.74593 0.749836 0.749836 0.753742 0.753742 0.757648 0.757648 0.761554 0.761554 0.765459 0.765459 0.769363 0.769363 0.773264 0.773264 0.777164 0.777164 0.78106 0.78106 0.784952 0.784952 0.78884 0.78884 0.792724 0.792724 0.796601 0.796601 0.800473 0.800473 0.804338 0.804338 0.808197 0.808197 0.812048 0.812048 0.815891 0.815891 0.819726 0.819726 0.823553 0.823553 0.827372 0.827372 0.831182 0.831182 0.834984 0.834984 0.838778 0.838778 0.842563 0.842563 0.846342 0.846342 0.850112 0.850112 0.853876 0.853876 0.857633 0.857633 0.861385 0.861385 0.865132 0.865132 0.868874 0.868874 0.872612 0.872612 0.876347 0.876347 0.880081 0.880081 0.883813 0.883813 0.887545 0.887545 0.891277 0.891277 0.895011 0.895011 0.898747 0.898747 0.902486 0.902486 0.906229 0.906229 0.909976 0.909976 0.913729 0.913729 0.917487 0.917487 0.921253 0.921253 0.925025 0.925025 0.928804 0.928804 0.932592 0.932592 0.936387 0.936387 0.940191 0.940191 0.944003 0.944003 0.947823 0.947823 0.951652 0.951652 0.955489 0.955489 0.959333 0.959333 0.963186 0.963186 0.967045 0.967045 0.970912 0.970912 0.974785 0.974785 0.978664 0.978664 0.982548 
