# vtk DataFile Version 3.0
#This file was generated by the deal.II library on 2021/7/12 at 18:00:21
ASCII
DATASET UNSTRUCTURED_GRID

POINTS 128 double
0 0 0
0.015625 0 0
0.015625 0 0
0.03125 0 0
0.03125 0 0
0.046875 0 0
0.046875 0 0
0.0625 0 0
0.0625 0 0
0.078125 0 0
0.078125 0 0
0.09375 0 0
0.09375 0 0
0.109375 0 0
0.109375 0 0
0.125 0 0
0.125 0 0
0.140625 0 0
0.140625 0 0
0.15625 0 0
0.15625 0 0
0.171875 0 0
0.171875 0 0
0.1875 0 0
0.1875 0 0
0.203125 0 0
0.203125 0 0
0.21875 0 0
0.21875 0 0
0.234375 0 0
0.234375 0 0
0.25 0 0
0.25 0 0
0.265625 0 0
0.265625 0 0
0.28125 0 0
0.28125 0 0
0.296875 0 0
0.296875 0 0
0.3125 0 0
0.3125 0 0
0.328125 0 0
0.328125 0 0
0.34375 0 0
0.34375 0 0
0.359375 0 0
0.359375 0 0
0.375 0 0
0.375 0 0
0.390625 0 0
0.390625 0 0
0.40625 0 0
0.40625 0 0
0.421875 0 0
0.421875 0 0
0.4375 0 0
0.4375 0 0
0.453125 0 0
0.453125 0 0
0.46875 0 0
0.46875 0 0
0.484375 0 0
0.484375 0 0
0.5 0 0
0.5 0 0
0.515625 0 0
0.515625 0 0
0.53125 0 0
0.53125 0 0
0.546875 0 0
0.546875 0 0
0.5625 0 0
0.5625 0 0
0.578125 0 0
0.578125 0 0
0.59375 0 0
0.59375 0 0
0.609375 0 0
0.609375 0 0
0.625 0 0
0.625 0 0
0.640625 0 0
0.640625 0 0
0.65625 0 0
0.65625 0 0
0.671875 0 0
0.671875 0 0
0.6875 0 0
0.6875 0 0
0.703125 0 0
0.703125 0 0
0.71875 0 0
0.71875 0 0
0.734375 0 0
0.734375 0 0
0.75 0 0
0.75 0 0
0.765625 0 0
0.765625 0 0
0.78125 0 0
0.78125 0 0
0.796875 0 0
0.796875 0 0
0.8125 0 0
0.8125 0 0
0.828125 0 0
0.828125 0 0
0.84375 0 0
0.84375 0 0
0.859375 0 0
0.859375 0 0
0.875 0 0
0.875 0 0
0.890625 0 0
0.890625 0 0
0.90625 0 0
0.90625 0 0
0.921875 0 0
0.921875 0 0
0.9375 0 0
0.9375 0 0
0.953125 0 0
0.953125 0 0
0.96875 0 0
0.96875 0 0
0.984375 0 0
0.984375 0 0
1 0 0

CELLS 64 192
2	0	1
2	2	3
2	4	5
2	6	7
2	8	9
2	10	11
2	12	13
2	14	15
2	16	17
2	18	19
2	20	21
2	22	23
2	24	25
2	26	27
2	28	29
2	30	31
2	32	33
2	34	35
2	36	37
2	38	39
2	40	41
2	42	43
2	44	45
2	46	47
2	48	49
2	50	51
2	52	53
2	54	55
2	56	57
2	58	59
2	60	61
2	62	63
2	64	65
2	66	67
2	68	69
2	70	71
2	72	73
2	74	75
2	76	77
2	78	79
2	80	81
2	82	83
2	84	85
2	86	87
2	88	89
2	90	91
2	92	93
2	94	95
2	96	97
2	98	99
2	100	101
2	102	103
2	104	105
2	106	107
2	108	109
2	110	111
2	112	113
2	114	115
2	116	117
2	118	119
2	120	121
2	122	123
2	124	125
2	126	127

CELL_TYPES 64
 3 3 3 3 3 3 3 3 3 3 3 3 3 3 3 3 3 3 3 3 3 3 3 3 3 3 3 3 3 3 3 3 3 3 3 3 3 3 3 3 3 3 3 3 3 3 3 3 3 3 3 3 3 3 3 3 3 3 3 3 3 3 3 3
POINT_DATA 128
SCALARS solution_0 double 1
LOOKUP_TABLE default
0.902123 0.90193 0.90193 0.908744 0.908744 0.920945 0.920945 0.927369 0.927369 0.92666 0.92666 0.929374 0.929374 0.939723 0.939723 0.94831 0.94831 0.948661 0.948661 0.948152 0.948152 0.955284 0.955284 0.964868 0.964868 0.967283 0.967283 0.964999 0.964999 0.96825 0.96825 0.977269 0.977269 0.981982 0.981982 0.97954 0.97954 0.979086 0.979086 0.985978 0.985978 0.992434 0.992434 0.991216 0.991216 0.987991 0.987991 0.991588 0.991588 0.998599 0.998599 0.999424 0.999424 0.994851 0.994851 0.994674 0.994674 1.00072 1.00072 1.00367 1.00367 0.99928 0.99928 0.995652 0.995652 0.99928 0.99928 1.00367 1.00367 1.00072 1.00072 0.994674 0.994674 0.994851 0.994851 0.999424 0.999424 0.998599 0.998599 0.991588 0.991588 0.987991 0.987991 0.991216 0.991216 0.992434 0.992434 0.985978 0.985978 0.979086 0.979086 0.97954 0.97954 0.981982 0.981982 0.977269 0.977269 0.96825 0.96825 0.964999 0.964999 0.967283 0.967283 0.964868 0.964868 0.955284 0.955284 0.948152 0.948152 0.948661 0.948661 0.94831 0.94831 0.939723 0.939723 0.929374 0.929374 0.92666 0.92666 0.927369 0.927369 0.920945 0.920945 0.908744 0.908744 0.90193 0.90193 0.902123 
SCALARS solution_1 double 1
LOOKUP_TABLE default
0 0.0156225 0.0156225 0.0296819 0.0296819 0.0394414 0.0394414 0.0536832 0.0536832 0.0692908 0.0692908 0.084677 0.084677 0.0963812 0.0963812 0.109434 0.109434 0.125053 0.125053 0.140669 0.140669 0.154569 0.154569 0.166908 0.166908 0.182344 0.182344 0.1978 0.1978 0.213081 0.213081 0.225839 0.225839 0.240735 0.240735 0.256166 0.256166 0.271783 0.271783 0.285804 0.285804 0.300032 0.300032 0.315608 0.315608 0.330895 0.330895 0.346098 0.346098 0.36006 0.36006 0.375662 0.375662 0.390601 0.390601 0.406224 0.406224 0.420628 0.420628 0.435972 0.435972 0.450967 0.450967 0.466163 0.466163 0.481359 0.481359 0.496354 0.496354 0.511698 0.511698 0.526103 0.526103 0.541725 0.541725 0.556664 0.556664 0.572266 0.572266 0.586228 0.586228 0.601432 0.601432 0.616719 0.616719 0.632294 0.632294 0.646522 0.646522 0.660543 0.660543 0.67616 0.67616 0.691592 0.691592 0.706487 0.706487 0.719245 0.719245 0.734527 0.734527 0.749982 0.749982 0.765418 0.765418 0.777757 0.777757 0.791658 0.791658 0.807273 0.807273 0.822892 0.822892 0.835945 0.835945 0.847649 0.847649 0.863035 0.863035 0.878643 0.878643 0.892885 0.892885 0.902644 0.902644 0.916704 0.916704 0.932326 
