# vtk DataFile Version 3.0
#This file was generated by the deal.II library on 2021/7/23 at 16:35:21
ASCII
DATASET UNSTRUCTURED_GRID

POINTS 512 double
0 0 0
0.00390625 0 0
0.00390625 0 0
0.0078125 0 0
0.0078125 0 0
0.0117188 0 0
0.0117188 0 0
0.015625 0 0
0.015625 0 0
0.0195312 0 0
0.0195312 0 0
0.0234375 0 0
0.0234375 0 0
0.0273438 0 0
0.0273438 0 0
0.03125 0 0
0.03125 0 0
0.0351562 0 0
0.0351562 0 0
0.0390625 0 0
0.0390625 0 0
0.0429688 0 0
0.0429688 0 0
0.046875 0 0
0.046875 0 0
0.0507812 0 0
0.0507812 0 0
0.0546875 0 0
0.0546875 0 0
0.0585938 0 0
0.0585938 0 0
0.0625 0 0
0.0625 0 0
0.0664062 0 0
0.0664062 0 0
0.0703125 0 0
0.0703125 0 0
0.0742188 0 0
0.0742188 0 0
0.078125 0 0
0.078125 0 0
0.0820312 0 0
0.0820312 0 0
0.0859375 0 0
0.0859375 0 0
0.0898438 0 0
0.0898438 0 0
0.09375 0 0
0.09375 0 0
0.0976562 0 0
0.0976562 0 0
0.101562 0 0
0.101562 0 0
0.105469 0 0
0.105469 0 0
0.109375 0 0
0.109375 0 0
0.113281 0 0
0.113281 0 0
0.117188 0 0
0.117188 0 0
0.121094 0 0
0.121094 0 0
0.125 0 0
0.125 0 0
0.128906 0 0
0.128906 0 0
0.132812 0 0
0.132812 0 0
0.136719 0 0
0.136719 0 0
0.140625 0 0
0.140625 0 0
0.144531 0 0
0.144531 0 0
0.148438 0 0
0.148438 0 0
0.152344 0 0
0.152344 0 0
0.15625 0 0
0.15625 0 0
0.160156 0 0
0.160156 0 0
0.164062 0 0
0.164062 0 0
0.167969 0 0
0.167969 0 0
0.171875 0 0
0.171875 0 0
0.175781 0 0
0.175781 0 0
0.179688 0 0
0.179688 0 0
0.183594 0 0
0.183594 0 0
0.1875 0 0
0.1875 0 0
0.191406 0 0
0.191406 0 0
0.195312 0 0
0.195312 0 0
0.199219 0 0
0.199219 0 0
0.203125 0 0
0.203125 0 0
0.207031 0 0
0.207031 0 0
0.210938 0 0
0.210938 0 0
0.214844 0 0
0.214844 0 0
0.21875 0 0
0.21875 0 0
0.222656 0 0
0.222656 0 0
0.226562 0 0
0.226562 0 0
0.230469 0 0
0.230469 0 0
0.234375 0 0
0.234375 0 0
0.238281 0 0
0.238281 0 0
0.242188 0 0
0.242188 0 0
0.246094 0 0
0.246094 0 0
0.25 0 0
0.25 0 0
0.253906 0 0
0.253906 0 0
0.257812 0 0
0.257812 0 0
0.261719 0 0
0.261719 0 0
0.265625 0 0
0.265625 0 0
0.269531 0 0
0.269531 0 0
0.273438 0 0
0.273438 0 0
0.277344 0 0
0.277344 0 0
0.28125 0 0
0.28125 0 0
0.285156 0 0
0.285156 0 0
0.289062 0 0
0.289062 0 0
0.292969 0 0
0.292969 0 0
0.296875 0 0
0.296875 0 0
0.300781 0 0
0.300781 0 0
0.304688 0 0
0.304688 0 0
0.308594 0 0
0.308594 0 0
0.3125 0 0
0.3125 0 0
0.316406 0 0
0.316406 0 0
0.320312 0 0
0.320312 0 0
0.324219 0 0
0.324219 0 0
0.328125 0 0
0.328125 0 0
0.332031 0 0
0.332031 0 0
0.335938 0 0
0.335938 0 0
0.339844 0 0
0.339844 0 0
0.34375 0 0
0.34375 0 0
0.347656 0 0
0.347656 0 0
0.351562 0 0
0.351562 0 0
0.355469 0 0
0.355469 0 0
0.359375 0 0
0.359375 0 0
0.363281 0 0
0.363281 0 0
0.367188 0 0
0.367188 0 0
0.371094 0 0
0.371094 0 0
0.375 0 0
0.375 0 0
0.378906 0 0
0.378906 0 0
0.382812 0 0
0.382812 0 0
0.386719 0 0
0.386719 0 0
0.390625 0 0
0.390625 0 0
0.394531 0 0
0.394531 0 0
0.398438 0 0
0.398438 0 0
0.402344 0 0
0.402344 0 0
0.40625 0 0
0.40625 0 0
0.410156 0 0
0.410156 0 0
0.414062 0 0
0.414062 0 0
0.417969 0 0
0.417969 0 0
0.421875 0 0
0.421875 0 0
0.425781 0 0
0.425781 0 0
0.429688 0 0
0.429688 0 0
0.433594 0 0
0.433594 0 0
0.4375 0 0
0.4375 0 0
0.441406 0 0
0.441406 0 0
0.445312 0 0
0.445312 0 0
0.449219 0 0
0.449219 0 0
0.453125 0 0
0.453125 0 0
0.457031 0 0
0.457031 0 0
0.460938 0 0
0.460938 0 0
0.464844 0 0
0.464844 0 0
0.46875 0 0
0.46875 0 0
0.472656 0 0
0.472656 0 0
0.476562 0 0
0.476562 0 0
0.480469 0 0
0.480469 0 0
0.484375 0 0
0.484375 0 0
0.488281 0 0
0.488281 0 0
0.492188 0 0
0.492188 0 0
0.496094 0 0
0.496094 0 0
0.5 0 0
0.5 0 0
0.503906 0 0
0.503906 0 0
0.507812 0 0
0.507812 0 0
0.511719 0 0
0.511719 0 0
0.515625 0 0
0.515625 0 0
0.519531 0 0
0.519531 0 0
0.523438 0 0
0.523438 0 0
0.527344 0 0
0.527344 0 0
0.53125 0 0
0.53125 0 0
0.535156 0 0
0.535156 0 0
0.539062 0 0
0.539062 0 0
0.542969 0 0
0.542969 0 0
0.546875 0 0
0.546875 0 0
0.550781 0 0
0.550781 0 0
0.554688 0 0
0.554688 0 0
0.558594 0 0
0.558594 0 0
0.5625 0 0
0.5625 0 0
0.566406 0 0
0.566406 0 0
0.570312 0 0
0.570312 0 0
0.574219 0 0
0.574219 0 0
0.578125 0 0
0.578125 0 0
0.582031 0 0
0.582031 0 0
0.585938 0 0
0.585938 0 0
0.589844 0 0
0.589844 0 0
0.59375 0 0
0.59375 0 0
0.597656 0 0
0.597656 0 0
0.601562 0 0
0.601562 0 0
0.605469 0 0
0.605469 0 0
0.609375 0 0
0.609375 0 0
0.613281 0 0
0.613281 0 0
0.617188 0 0
0.617188 0 0
0.621094 0 0
0.621094 0 0
0.625 0 0
0.625 0 0
0.628906 0 0
0.628906 0 0
0.632812 0 0
0.632812 0 0
0.636719 0 0
0.636719 0 0
0.640625 0 0
0.640625 0 0
0.644531 0 0
0.644531 0 0
0.648438 0 0
0.648438 0 0
0.652344 0 0
0.652344 0 0
0.65625 0 0
0.65625 0 0
0.660156 0 0
0.660156 0 0
0.664062 0 0
0.664062 0 0
0.667969 0 0
0.667969 0 0
0.671875 0 0
0.671875 0 0
0.675781 0 0
0.675781 0 0
0.679688 0 0
0.679688 0 0
0.683594 0 0
0.683594 0 0
0.6875 0 0
0.6875 0 0
0.691406 0 0
0.691406 0 0
0.695312 0 0
0.695312 0 0
0.699219 0 0
0.699219 0 0
0.703125 0 0
0.703125 0 0
0.707031 0 0
0.707031 0 0
0.710938 0 0
0.710938 0 0
0.714844 0 0
0.714844 0 0
0.71875 0 0
0.71875 0 0
0.722656 0 0
0.722656 0 0
0.726562 0 0
0.726562 0 0
0.730469 0 0
0.730469 0 0
0.734375 0 0
0.734375 0 0
0.738281 0 0
0.738281 0 0
0.742188 0 0
0.742188 0 0
0.746094 0 0
0.746094 0 0
0.75 0 0
0.75 0 0
0.753906 0 0
0.753906 0 0
0.757812 0 0
0.757812 0 0
0.761719 0 0
0.761719 0 0
0.765625 0 0
0.765625 0 0
0.769531 0 0
0.769531 0 0
0.773438 0 0
0.773438 0 0
0.777344 0 0
0.777344 0 0
0.78125 0 0
0.78125 0 0
0.785156 0 0
0.785156 0 0
0.789062 0 0
0.789062 0 0
0.792969 0 0
0.792969 0 0
0.796875 0 0
0.796875 0 0
0.800781 0 0
0.800781 0 0
0.804688 0 0
0.804688 0 0
0.808594 0 0
0.808594 0 0
0.8125 0 0
0.8125 0 0
0.816406 0 0
0.816406 0 0
0.820312 0 0
0.820312 0 0
0.824219 0 0
0.824219 0 0
0.828125 0 0
0.828125 0 0
0.832031 0 0
0.832031 0 0
0.835938 0 0
0.835938 0 0
0.839844 0 0
0.839844 0 0
0.84375 0 0
0.84375 0 0
0.847656 0 0
0.847656 0 0
0.851562 0 0
0.851562 0 0
0.855469 0 0
0.855469 0 0
0.859375 0 0
0.859375 0 0
0.863281 0 0
0.863281 0 0
0.867188 0 0
0.867188 0 0
0.871094 0 0
0.871094 0 0
0.875 0 0
0.875 0 0
0.878906 0 0
0.878906 0 0
0.882812 0 0
0.882812 0 0
0.886719 0 0
0.886719 0 0
0.890625 0 0
0.890625 0 0
0.894531 0 0
0.894531 0 0
0.898438 0 0
0.898438 0 0
0.902344 0 0
0.902344 0 0
0.90625 0 0
0.90625 0 0
0.910156 0 0
0.910156 0 0
0.914062 0 0
0.914062 0 0
0.917969 0 0
0.917969 0 0
0.921875 0 0
0.921875 0 0
0.925781 0 0
0.925781 0 0
0.929688 0 0
0.929688 0 0
0.933594 0 0
0.933594 0 0
0.9375 0 0
0.9375 0 0
0.941406 0 0
0.941406 0 0
0.945312 0 0
0.945312 0 0
0.949219 0 0
0.949219 0 0
0.953125 0 0
0.953125 0 0
0.957031 0 0
0.957031 0 0
0.960938 0 0
0.960938 0 0
0.964844 0 0
0.964844 0 0
0.96875 0 0
0.96875 0 0
0.972656 0 0
0.972656 0 0
0.976562 0 0
0.976562 0 0
0.980469 0 0
0.980469 0 0
0.984375 0 0
0.984375 0 0
0.988281 0 0
0.988281 0 0
0.992188 0 0
0.992188 0 0
0.996094 0 0
0.996094 0 0
1 0 0

CELLS 256 768
2	0	1
2	2	3
2	4	5
2	6	7
2	8	9
2	10	11
2	12	13
2	14	15
2	16	17
2	18	19
2	20	21
2	22	23
2	24	25
2	26	27
2	28	29
2	30	31
2	32	33
2	34	35
2	36	37
2	38	39
2	40	41
2	42	43
2	44	45
2	46	47
2	48	49
2	50	51
2	52	53
2	54	55
2	56	57
2	58	59
2	60	61
2	62	63
2	64	65
2	66	67
2	68	69
2	70	71
2	72	73
2	74	75
2	76	77
2	78	79
2	80	81
2	82	83
2	84	85
2	86	87
2	88	89
2	90	91
2	92	93
2	94	95
2	96	97
2	98	99
2	100	101
2	102	103
2	104	105
2	106	107
2	108	109
2	110	111
2	112	113
2	114	115
2	116	117
2	118	119
2	120	121
2	122	123
2	124	125
2	126	127
2	128	129
2	130	131
2	132	133
2	134	135
2	136	137
2	138	139
2	140	141
2	142	143
2	144	145
2	146	147
2	148	149
2	150	151
2	152	153
2	154	155
2	156	157
2	158	159
2	160	161
2	162	163
2	164	165
2	166	167
2	168	169
2	170	171
2	172	173
2	174	175
2	176	177
2	178	179
2	180	181
2	182	183
2	184	185
2	186	187
2	188	189
2	190	191
2	192	193
2	194	195
2	196	197
2	198	199
2	200	201
2	202	203
2	204	205
2	206	207
2	208	209
2	210	211
2	212	213
2	214	215
2	216	217
2	218	219
2	220	221
2	222	223
2	224	225
2	226	227
2	228	229
2	230	231
2	232	233
2	234	235
2	236	237
2	238	239
2	240	241
2	242	243
2	244	245
2	246	247
2	248	249
2	250	251
2	252	253
2	254	255
2	256	257
2	258	259
2	260	261
2	262	263
2	264	265
2	266	267
2	268	269
2	270	271
2	272	273
2	274	275
2	276	277
2	278	279
2	280	281
2	282	283
2	284	285
2	286	287
2	288	289
2	290	291
2	292	293
2	294	295
2	296	297
2	298	299
2	300	301
2	302	303
2	304	305
2	306	307
2	308	309
2	310	311
2	312	313
2	314	315
2	316	317
2	318	319
2	320	321
2	322	323
2	324	325
2	326	327
2	328	329
2	330	331
2	332	333
2	334	335
2	336	337
2	338	339
2	340	341
2	342	343
2	344	345
2	346	347
2	348	349
2	350	351
2	352	353
2	354	355
2	356	357
2	358	359
2	360	361
2	362	363
2	364	365
2	366	367
2	368	369
2	370	371
2	372	373
2	374	375
2	376	377
2	378	379
2	380	381
2	382	383
2	384	385
2	386	387
2	388	389
2	390	391
2	392	393
2	394	395
2	396	397
2	398	399
2	400	401
2	402	403
2	404	405
2	406	407
2	408	409
2	410	411
2	412	413
2	414	415
2	416	417
2	418	419
2	420	421
2	422	423
2	424	425
2	426	427
2	428	429
2	430	431
2	432	433
2	434	435
2	436	437
2	438	439
2	440	441
2	442	443
2	444	445
2	446	447
2	448	449
2	450	451
2	452	453
2	454	455
2	456	457
2	458	459
2	460	461
2	462	463
2	464	465
2	466	467
2	468	469
2	470	471
2	472	473
2	474	475
2	476	477
2	478	479
2	480	481
2	482	483
2	484	485
2	486	487
2	488	489
2	490	491
2	492	493
2	494	495
2	496	497
2	498	499
2	500	501
2	502	503
2	504	505
2	506	507
2	508	509
2	510	511

CELL_TYPES 256
 3 3 3 3 3 3 3 3 3 3 3 3 3 3 3 3 3 3 3 3 3 3 3 3 3 3 3 3 3 3 3 3 3 3 3 3 3 3 3 3 3 3 3 3 3 3 3 3 3 3 3 3 3 3 3 3 3 3 3 3 3 3 3 3 3 3 3 3 3 3 3 3 3 3 3 3 3 3 3 3 3 3 3 3 3 3 3 3 3 3 3 3 3 3 3 3 3 3 3 3 3 3 3 3 3 3 3 3 3 3 3 3 3 3 3 3 3 3 3 3 3 3 3 3 3 3 3 3 3 3 3 3 3 3 3 3 3 3 3 3 3 3 3 3 3 3 3 3 3 3 3 3 3 3 3 3 3 3 3 3 3 3 3 3 3 3 3 3 3 3 3 3 3 3 3 3 3 3 3 3 3 3 3 3 3 3 3 3 3 3 3 3 3 3 3 3 3 3 3 3 3 3 3 3 3 3 3 3 3 3 3 3 3 3 3 3 3 3 3 3 3 3 3 3 3 3 3 3 3 3 3 3 3 3 3 3 3 3 3 3 3 3 3 3 3 3 3 3 3 3 3 3 3 3 3 3
POINT_DATA 512
SCALARS solution_0 double 1
LOOKUP_TABLE default
0.0707706 0.0715817 0.0715817 0.0723932 0.0723932 0.0732054 0.0732054 0.0740186 0.0740186 0.0748331 0.0748331 0.0756492 0.0756492 0.0764672 0.0764672 0.0772872 0.0772872 0.0781096 0.0781096 0.0789346 0.0789346 0.0797624 0.0797624 0.0805933 0.0805933 0.0814275 0.0814275 0.0822652 0.0822652 0.0831067 0.0831067 0.0839521 0.0839521 0.0848017 0.0848017 0.0856558 0.0856558 0.0865145 0.0865145 0.087378 0.087378 0.0882467 0.0882467 0.0891207 0.0891207 0.0900002 0.0900002 0.0908855 0.0908855 0.0917769 0.0917769 0.0926745 0.0926745 0.0935786 0.0935786 0.0944894 0.0944894 0.0954072 0.0954072 0.0963322 0.0963322 0.0972647 0.0972647 0.0982049 0.0982049 0.099153 0.099153 0.100109 0.100109 0.101074 0.101074 0.102048 0.102048 0.10303 0.10303 0.104022 0.104022 0.105023 0.105023 0.106034 0.106034 0.107056 0.107056 0.108087 0.108087 0.109129 0.109129 0.110182 0.110182 0.111246 0.111246 0.112322 0.112322 0.113409 0.113409 0.114509 0.114509 0.11562 0.11562 0.116745 0.116745 0.117882 0.117882 0.119033 0.119033 0.120196 0.120196 0.121374 0.121374 0.122566 0.122566 0.123772 0.123772 0.124992 0.124992 0.126228 0.126228 0.127479 0.127479 0.128744 0.128744 0.130026 0.130026 0.131323 0.131323 0.132637 0.132637 0.133966 0.133966 0.135312 0.135312 0.136675 0.136675 0.138054 0.138054 0.13945 0.13945 0.140863 0.140863 0.142292 0.142292 0.143739 0.143739 0.145203 0.145203 0.146684 0.146684 0.148182 0.148182 0.149696 0.149696 0.151227 0.151227 0.152775 0.152775 0.154339 0.154339 0.15592 0.15592 0.157516 0.157516 0.159127 0.159127 0.160754 0.160754 0.162396 0.162396 0.164052 0.164052 0.165722 0.165722 0.167406 0.167406 0.169102 0.169102 0.17081 0.17081 0.172531 0.172531 0.174262 0.174262 0.176004 0.176004 0.177755 0.177755 0.179515 0.179515 0.181284 0.181284 0.18306 0.18306 0.184842 0.184842 0.186631 0.186631 0.188425 0.188425 0.190222 0.190222 0.192024 0.192024 0.193828 0.193828 0.195634 0.195634 0.197442 0.197442 0.19925 0.19925 0.201058 0.201058 0.202866 0.202866 0.204672 0.204672 0.206477 0.206477 0.20828 0.20828 0.210081 0.210081 0.211879 0.211879 0.213675 0.213675 0.215469 0.215469 0.217261 0.217261 0.21905 0.21905 0.220839 0.220839 0.222627 0.222627 0.224415 0.224415 0.226205 0.226205 0.227998 0.227998 0.229795 0.229795 0.231598 0.231598 0.233409 0.233409 0.23523 0.23523 0.237064 0.237064 0.238914 0.238914 0.240783 0.240783 0.242673 0.242673 0.244589 0.244589 0.246535 0.246535 0.248514 0.248514 0.250531 0.250531 0.252591 0.252591 0.254697 0.254697 0.256856 0.256856 0.259072 0.259072 0.26135 0.26135 0.263696 0.263696 0.266114 0.266114 0.26861 0.26861 0.271188 0.271188 0.273853 0.273853 0.276608 0.276608 0.279459 0.279459 0.282408 0.282408 0.285457 0.285457 0.288609 0.288609 0.291863 0.291863 0.295221 0.295221 0.298681 0.298681 0.302241 0.302241 0.305898 0.305898 0.309647 0.309647 0.313484 0.313484 0.317402 0.317402 0.321394 0.321394 0.325454 0.325454 0.329572 0.329572 0.33374 0.33374 0.337949 0.337949 0.342191 0.342191 0.346456 0.346456 0.350733 0.350733 0.355014 0.355014 0.359287 0.359287 0.363542 0.363542 0.36777 0.36777 0.37196 0.37196 0.376104 0.376104 0.380192 0.380192 0.384217 0.384217 0.388171 0.388171 0.392048 0.392048 0.395843 0.395843 0.399552 0.399552 0.403172 0.403172 0.406699 0.406699 0.410132 0.410132 0.41347 0.41347 0.416712 0.416712 0.41986 0.41986 0.422913 0.422913 0.425873 0.425873 0.428741 0.428741 0.43152 0.43152 0.434211 0.434211 0.436817 0.436817 0.43934 0.43934 0.441783 0.441783 0.444148 0.444148 0.446438 0.446438 0.448657 0.448657 0.450805 0.450805 0.452886 0.452886 0.454903 0.454903 0.456858 0.456858 0.458752 0.458752 0.460588 0.460588 0.462369 0.462369 0.464095 0.464095 0.465769 0.465769 0.467392 0.467392 0.468965 0.468965 0.470491 0.470491 0.471969 0.471969 0.473402 0.473402 0.474788 0.474788 0.476131 0.476131 0.477429 0.477429 0.478683 0.478683 0.479894 0.479894 0.481061 0.481061 0.482185 0.482185 0.483265 0.483265 0.484302 0.484302 0.485293 0.485293 0.486241 0.486241 0.487142 0.487142 0.487998 0.487998 0.488806 0.488806 0.489566 0.489566 0.490278 0.490278 0.490939 0.490939 0.49155 0.49155 0.492108 0.492108 0.492612 0.492612 0.493061 0.493061 0.493454 0.493454 0.493789 0.493789 0.494065 0.494065 0.494279 0.494279 0.494432 0.494432 0.49452 0.49452 0.494542 0.494542 0.494497 0.494497 0.494384 0.494384 0.494199 0.494199 0.493943 0.493943 0.493613 0.493613 0.493208 0.493208 0.492726 0.492726 0.492166 0.492166 0.491526 0.491526 0.490805 0.490805 0.490002 0.490002 0.489116 0.489116 0.488145 0.488145 0.487089 0.487089 0.485946 0.485946 0.484715 0.484715 0.483397 0.483397 0.48199 0.48199 0.480495 0.480495 0.47891 0.47891 0.477236 0.477236 0.475472 
SCALARS solution_1 double 1
LOOKUP_TABLE default
0 0.00471494 0.00471494 0.00942988 0.00942988 0.0141448 0.0141448 0.0188595 0.0188595 0.0235741 0.0235741 0.0282885 0.0282885 0.0330026 0.0330026 0.0377164 0.0377164 0.0424297 0.0424297 0.0471427 0.0471427 0.0518551 0.0518551 0.0565671 0.0565671 0.0612784 0.0612784 0.0659892 0.0659892 0.0706993 0.0706993 0.0754087 0.0754087 0.0801174 0.0801174 0.0848253 0.0848253 0.0895323 0.0895323 0.0942385 0.0942385 0.0989437 0.0989437 0.103648 0.103648 0.108351 0.108351 0.113053 0.113053 0.117754 0.117754 0.122454 0.122454 0.127153 0.127153 0.13185 0.13185 0.136546 0.136546 0.14124 0.14124 0.145934 0.145934 0.150625 0.150625 0.155315 0.155315 0.160003 0.160003 0.16469 0.16469 0.169375 0.169375 0.174057 0.174057 0.178738 0.178738 0.183417 0.183417 0.188094 0.188094 0.192769 0.192769 0.197441 0.197441 0.202111 0.202111 0.206779 0.206779 0.211444 0.211444 0.216106 0.216106 0.220766 0.220766 0.225423 0.225423 0.230077 0.230077 0.234728 0.234728 0.239375 0.239375 0.24402 0.24402 0.248661 0.248661 0.253299 0.253299 0.257933 0.257933 0.262564 0.262564 0.267191 0.267191 0.271814 0.271814 0.276433 0.276433 0.281048 0.281048 0.285659 0.285659 0.290265 0.290265 0.294867 0.294867 0.299464 0.299464 0.304057 0.304057 0.308645 0.308645 0.313228 0.313228 0.317807 0.317807 0.32238 0.32238 0.326949 0.326949 0.331512 0.331512 0.33607 0.33607 0.340623 0.340623 0.345171 0.345171 0.349713 0.349713 0.35425 0.35425 0.358782 0.358782 0.363309 0.363309 0.36783 0.36783 0.372346 0.372346 0.376858 0.376858 0.381364 0.381364 0.385865 0.385865 0.390361 0.390361 0.394853 0.394853 0.39934 0.39934 0.403822 0.403822 0.408301 0.408301 0.412775 0.412775 0.417245 0.417245 0.421712 0.421712 0.426175 0.426175 0.430635 0.430635 0.435092 0.435092 0.439546 0.439546 0.443997 0.443997 0.448447 0.448447 0.452894 0.452894 0.45734 0.45734 0.461784 0.461784 0.466226 0.466226 0.470668 0.470668 0.475109 0.475109 0.479549 0.479549 0.483989 0.483989 0.488428 0.488428 0.492868 0.492868 0.497307 0.497307 0.501746 0.501746 0.506185 0.506185 0.510625 0.510625 0.515064 0.515064 0.519503 0.519503 0.523941 0.523941 0.528379 0.528379 0.532817 0.532817 0.537253 0.537253 0.541687 0.541687 0.546119 0.546119 0.550548 0.550548 0.554974 0.554974 0.559395 0.559395 0.56381 0.56381 0.568219 0.568219 0.572619 0.572619 0.577011 0.577011 0.581391 0.581391 0.585758 0.585758 0.59011 0.59011 0.594444 0.594444 0.598758 0.598758 0.603049 0.603049 0.607312 0.607312 0.611546 0.611546 0.615745 0.615745 0.619905 0.619905 0.62402 0.62402 0.628085 0.628085 0.632095 0.632095 0.636042 0.636042 0.639918 0.639918 0.643717 0.643717 0.64743 0.64743 0.651047 0.651047 0.654559 0.654559 0.657956 0.657956 0.661227 0.661227 0.664362 0.664362 0.667349 0.667349 0.670177 0.670177 0.672835 0.672835 0.675311 0.675311 0.677595 0.677595 0.679677 0.679677 0.681547 0.681547 0.683197 0.683197 0.684619 0.684619 0.685806 0.685806 0.686754 0.686754 0.687459 0.687459 0.687917 0.687917 0.688128 0.688128 0.688092 0.688092 0.687809 0.687809 0.687282 0.687282 0.686514 0.686514 0.685512 0.685512 0.68428 0.68428 0.682826 0.682826 0.681157 0.681157 0.679283 0.679283 0.677212 0.677212 0.674954 0.674954 0.672518 0.672518 0.669916 0.669916 0.667156 0.667156 0.664248 0.664248 0.661202 0.661202 0.658028 0.658028 0.654733 0.654733 0.651328 0.651328 0.647819 0.647819 0.644215 0.644215 0.640523 0.640523 0.636749 0.636749 0.632901 0.632901 0.628983 0.628983 0.625002 0.625002 0.620963 0.620963 0.61687 0.61687 0.612727 0.612727 0.608539 0.608539 0.604308 0.604308 0.60004 0.60004 0.595735 0.595735 0.591398 0.591398 0.58703 0.58703 0.582635 0.582635 0.578213 0.578213 0.573767 0.573767 0.569299 0.569299 0.564809 0.564809 0.5603 0.5603 0.555773 0.555773 0.551228 0.551228 0.546667 0.546667 0.54209 0.54209 0.537499 0.537499 0.532895 0.532895 0.528277 0.528277 0.523646 0.523646 0.519003 0.519003 0.514349 0.514349 0.509684 0.509684 0.505009 0.505009 0.500323 0.500323 0.495627 0.495627 0.490922 0.490922 0.486208 0.486208 0.481486 0.481486 0.476755 0.476755 0.472017 0.472017 0.467271 0.467271 0.462518 0.462518 0.457759 0.457759 0.452994 0.452994 0.448224 0.448224 0.443449 0.443449 0.438669 0.438669 0.433886 0.433886 0.429101 0.429101 0.424313 0.424313 0.419524 0.419524 0.414735 0.414735 0.409946 0.409946 0.405159 0.405159 0.400375 0.400375 0.395595 0.395595 0.390819 0.390819 0.386051 0.386051 0.38129 0.38129 0.376538 0.376538 0.371797 0.371797 0.367067 0.367067 0.362352 0.362352 0.357652 0.357652 0.35297 0.35297 0.348306 0.348306 0.343663 0.343663 0.339043 0.339043 0.334447 0.334447 0.329877 0.329877 0.325335 0.325335 0.320823 0.320823 0.316343 0.316343 0.311896 
SCALARS solution_2 double 1
LOOKUP_TABLE default
0.00109512 0.00107009 0.00107009 0.00103492 0.00103492 0.000995748 0.000995748 0.000956476 0.000956476 0.000919513 0.000919513 0.000886253 0.000886253 0.00085742 0.00085742 0.00083329 0.00083329 0.000813853 0.000813853 0.00079892 0.00079892 0.000788194 0.000788194 0.000781326 0.000781326 0.000777945 0.000777945 0.000777682 0.000777682 0.000780187 0.000780187 0.000785136 0.000785136 0.000792239 0.000792239 0.000801239 0.000801239 0.000811917 0.000811917 0.000824086 0.000824086 0.000837595 0.000837595 0.000852319 0.000852319 0.000868164 0.000868164 0.000885056 0.000885056 0.000902943 0.000902943 0.000921786 0.000921786 0.000941561 0.000941561 0.000962251 0.000962251 0.00098384 0.00098384 0.00100632 0.00100632 0.00102966 0.00102966 0.00105384 0.00105384 0.00107883 0.00107883 0.00110457 0.00110457 0.00113099 0.00113099 0.001158 0.001158 0.00118547 0.00118547 0.00121327 0.00121327 0.0012412 0.0012412 0.00126905 0.00126905 0.00129657 0.00129657 0.00132348 0.00132348 0.00134943 0.00134943 0.00137407 0.00137407 0.00139697 0.00139697 0.00141767 0.00141767 0.00143568 0.00143568 0.00145044 0.00145044 0.00146138 0.00146138 0.00146787 0.00146787 0.00146925 0.00146925 0.00146481 0.00146481 0.00145385 0.00145385 0.00143559 0.00143559 0.00140928 0.00140928 0.00137412 0.00137412 0.00132933 0.00132933 0.00127411 0.00127411 0.00120767 0.00120767 0.00112924 0.00112924 0.00103808 0.00103808 0.000933484 0.000933484 0.000814787 0.000814787 0.000681383 0.000681383 0.000532731 0.000532731 0.00036837 0.00036837 0.000187926 0.000187926 -8.8747e-06 -8.8747e-06 -0.000222195 -0.000222195 -0.000452075 -0.000452075 -0.00069842 -0.00069842 -0.000960997 -0.000960997 -0.00123942 -0.00123942 -0.00153314 -0.00153314 -0.00184143 -0.00184143 -0.00216341 -0.00216341 -0.00249797 -0.00249797 -0.00284386 -0.00284386 -0.00319957 -0.00319957 -0.00356343 -0.00356343 -0.00393354 -0.00393354 -0.00430776 -0.00430776 -0.00468376 -0.00468376 -0.00505895 -0.00505895 -0.00543052 -0.00543052 -0.00579542 -0.00579542 -0.00615032 -0.00615032 -0.00649169 -0.00649169 -0.0068157 -0.0068157 -0.00711827 -0.00711827 -0.00739504 -0.00739504 -0.00764137 -0.00764137 -0.00785236 -0.00785236 -0.00802279 -0.00802279 -0.00814717 -0.00814717 -0.00821968 -0.00821968 -0.00823423 -0.00823423 -0.00818441 -0.00818441 -0.0080635 -0.0080635 -0.00786452 -0.00786452 -0.00758015 -0.00758015 -0.00720284 -0.00720284 -0.00672476 -0.00672476 -0.00613787 -0.00613787 -0.00543392 -0.00543392 -0.00460452 -0.00460452 -0.00364117 -0.00364117 -0.00253537 -0.00253537 -0.00127863 -0.00127863 0.000137368 0.000137368 0.00172071 0.00172071 0.0034791 0.0034791 0.00541973 0.00541973 0.0075491 0.0075491 0.00987286 0.00987286 0.0123956 0.0123956 0.0151206 0.0151206 0.0180495 0.0180495 0.0211825 0.0211825 0.0245172 0.0245172 0.0280492 0.0280492 0.0317713 0.0317713 0.035673 0.035673 0.0397406 0.0397406 0.0439564 0.0439564 0.0482989 0.0482989 0.0527415 0.0527415 0.0572531 0.0572531 0.0617971 0.0617971 0.0663316 0.0663316 0.0708085 0.0708085 0.0751739 0.0751739 0.079368 0.079368 0.0833248 0.0833248 0.0869725 0.0869725 0.0902343 0.0902343 0.0930287 0.0930287 0.0952706 0.0952706 0.0968732 0.0968732 0.0977493 0.0977493 0.0978138 0.0978138 0.0969867 0.0969867 0.0951963 0.0951963 0.0923828 0.0923828 0.0885029 0.0885029 0.0835342 0.0835342 0.0774802 0.0774802 0.0703748 0.0703748 0.0622868 0.0622868 0.0533239 0.0533239 0.0436353 0.0436353 0.033413 0.033413 0.0228904 0.0228904 0.0123387 0.0123387 0.00205952 0.00205952 -0.00762609 -0.00762609 -0.0163932 -0.0163932 -0.0239319 -0.0239319 -0.0299687 -0.0299687 -0.0342875 -0.0342875 -0.0367477 -0.0367477 -0.0372939 -0.0372939 -0.0359584 -0.0359584 -0.0328533 -0.0328533 -0.0281565 -0.0281565 -0.0220938 -0.0220938 -0.0149202 -0.0149202 -0.006903 -0.006903 0.00169249 0.00169249 0.010614 0.010614 0.0196304 0.0196304 0.0285364 0.0285364 0.0371558 0.0371558 0.0453424 0.0453424 0.0529791 0.0529791 0.0599765 0.0599765 0.0662709 0.0662709 0.0718213 0.0718213 0.0766067 0.0766067 0.0806228 0.0806228 0.0838795 0.0838795 0.0863981 0.0863981 0.0882088 0.0882088 0.0893484 0.0893484 0.0898587 0.0898587 0.0897843 0.0897843 0.089172 0.089172 0.088069 0.088069 0.0865222 0.0865222 0.0845777 0.0845777 0.0822799 0.0822799 0.0796712 0.0796712 0.076792 0.076792 0.07368 0.07368 0.0703707 0.0703707 0.0668969 0.0668969 0.0632887 0.0632887 0.0595741 0.0595741 0.0557784 0.0557784 0.0519248 0.0519248 0.0480343 0.0480343 0.0441259 0.0441259 0.0402166 0.0402166 0.0363218 0.0363218 0.0324552 0.0324552 0.028629 0.028629 0.0248543 0.0248543 0.0211405 0.0211405 0.0174964 0.0174964 0.0139295 0.0139295 0.0104465 0.0104465 0.00705337 0.00705337 0.0037553 0.0037553 0.000556949 0.000556949 -0.00253756 -0.00253756 -0.00552452 -0.00552452 -0.00840063 -0.00840063 -0.0111629 -0.0111629 -0.0138085 -0.0138085 -0.0163348 -0.0163348 -0.0187395 -0.0187395 -0.0210202 -0.0210202 -0.0231746 -0.0231746 -0.0252005 -0.0252005 -0.0270957 -0.0270957 -0.0288579 -0.0288579 -0.0304851 -0.0304851 -0.0319749 -0.0319749 -0.0333252 -0.0333252 -0.0345337 -0.0345337 -0.0355984 -0.0355984 -0.0365173 -0.0365173 -0.0372883 -0.0372883 -0.0379099 -0.0379099 -0.0383806 -0.0383806 -0.0386993 -0.0386993 -0.0388653 -0.0388653 -0.0388788 -0.0388788 -0.0387402 -0.0387402 -0.0384512 -0.0384512 -0.0380142 -0.0380142 -0.0374329 -0.0374329 -0.0367125 -0.0367125 -0.0358595 -0.0358595 -0.0348828 -0.0348828 -0.0337928 -0.0337928 -0.0326029 -0.0326029 -0.0313288 -0.0313288 -0.0299895 -0.0299895 -0.0286074 -0.0286074 -0.0272089 -0.0272089 -0.0258245 -0.0258245 -0.0244899 -0.0244899 -0.0232473 -0.0232473 -0.0221524 -0.0221524 -0.0213142 
SCALARS solution_3 double 1
LOOKUP_TABLE default