# vtk DataFile Version 3.0
#This file was generated by the deal.II library on 2021/8/5 at 11:42:38
ASCII
DATASET UNSTRUCTURED_GRID

POINTS 512 double
0 0 0
0.00390625 0 0
0.00390625 0 0
0.0078125 0 0
0.0078125 0 0
0.0117188 0 0
0.0117188 0 0
0.015625 0 0
0.015625 0 0
0.0195312 0 0
0.0195312 0 0
0.0234375 0 0
0.0234375 0 0
0.0273438 0 0
0.0273438 0 0
0.03125 0 0
0.03125 0 0
0.0351562 0 0
0.0351562 0 0
0.0390625 0 0
0.0390625 0 0
0.0429688 0 0
0.0429688 0 0
0.046875 0 0
0.046875 0 0
0.0507812 0 0
0.0507812 0 0
0.0546875 0 0
0.0546875 0 0
0.0585938 0 0
0.0585938 0 0
0.0625 0 0
0.0625 0 0
0.0664062 0 0
0.0664062 0 0
0.0703125 0 0
0.0703125 0 0
0.0742188 0 0
0.0742188 0 0
0.078125 0 0
0.078125 0 0
0.0820312 0 0
0.0820312 0 0
0.0859375 0 0
0.0859375 0 0
0.0898438 0 0
0.0898438 0 0
0.09375 0 0
0.09375 0 0
0.0976562 0 0
0.0976562 0 0
0.101562 0 0
0.101562 0 0
0.105469 0 0
0.105469 0 0
0.109375 0 0
0.109375 0 0
0.113281 0 0
0.113281 0 0
0.117188 0 0
0.117188 0 0
0.121094 0 0
0.121094 0 0
0.125 0 0
0.125 0 0
0.128906 0 0
0.128906 0 0
0.132812 0 0
0.132812 0 0
0.136719 0 0
0.136719 0 0
0.140625 0 0
0.140625 0 0
0.144531 0 0
0.144531 0 0
0.148438 0 0
0.148438 0 0
0.152344 0 0
0.152344 0 0
0.15625 0 0
0.15625 0 0
0.160156 0 0
0.160156 0 0
0.164062 0 0
0.164062 0 0
0.167969 0 0
0.167969 0 0
0.171875 0 0
0.171875 0 0
0.175781 0 0
0.175781 0 0
0.179688 0 0
0.179688 0 0
0.183594 0 0
0.183594 0 0
0.1875 0 0
0.1875 0 0
0.191406 0 0
0.191406 0 0
0.195312 0 0
0.195312 0 0
0.199219 0 0
0.199219 0 0
0.203125 0 0
0.203125 0 0
0.207031 0 0
0.207031 0 0
0.210938 0 0
0.210938 0 0
0.214844 0 0
0.214844 0 0
0.21875 0 0
0.21875 0 0
0.222656 0 0
0.222656 0 0
0.226562 0 0
0.226562 0 0
0.230469 0 0
0.230469 0 0
0.234375 0 0
0.234375 0 0
0.238281 0 0
0.238281 0 0
0.242188 0 0
0.242188 0 0
0.246094 0 0
0.246094 0 0
0.25 0 0
0.25 0 0
0.253906 0 0
0.253906 0 0
0.257812 0 0
0.257812 0 0
0.261719 0 0
0.261719 0 0
0.265625 0 0
0.265625 0 0
0.269531 0 0
0.269531 0 0
0.273438 0 0
0.273438 0 0
0.277344 0 0
0.277344 0 0
0.28125 0 0
0.28125 0 0
0.285156 0 0
0.285156 0 0
0.289062 0 0
0.289062 0 0
0.292969 0 0
0.292969 0 0
0.296875 0 0
0.296875 0 0
0.300781 0 0
0.300781 0 0
0.304688 0 0
0.304688 0 0
0.308594 0 0
0.308594 0 0
0.3125 0 0
0.3125 0 0
0.316406 0 0
0.316406 0 0
0.320312 0 0
0.320312 0 0
0.324219 0 0
0.324219 0 0
0.328125 0 0
0.328125 0 0
0.332031 0 0
0.332031 0 0
0.335938 0 0
0.335938 0 0
0.339844 0 0
0.339844 0 0
0.34375 0 0
0.34375 0 0
0.347656 0 0
0.347656 0 0
0.351562 0 0
0.351562 0 0
0.355469 0 0
0.355469 0 0
0.359375 0 0
0.359375 0 0
0.363281 0 0
0.363281 0 0
0.367188 0 0
0.367188 0 0
0.371094 0 0
0.371094 0 0
0.375 0 0
0.375 0 0
0.378906 0 0
0.378906 0 0
0.382812 0 0
0.382812 0 0
0.386719 0 0
0.386719 0 0
0.390625 0 0
0.390625 0 0
0.394531 0 0
0.394531 0 0
0.398438 0 0
0.398438 0 0
0.402344 0 0
0.402344 0 0
0.40625 0 0
0.40625 0 0
0.410156 0 0
0.410156 0 0
0.414062 0 0
0.414062 0 0
0.417969 0 0
0.417969 0 0
0.421875 0 0
0.421875 0 0
0.425781 0 0
0.425781 0 0
0.429688 0 0
0.429688 0 0
0.433594 0 0
0.433594 0 0
0.4375 0 0
0.4375 0 0
0.441406 0 0
0.441406 0 0
0.445312 0 0
0.445312 0 0
0.449219 0 0
0.449219 0 0
0.453125 0 0
0.453125 0 0
0.457031 0 0
0.457031 0 0
0.460938 0 0
0.460938 0 0
0.464844 0 0
0.464844 0 0
0.46875 0 0
0.46875 0 0
0.472656 0 0
0.472656 0 0
0.476562 0 0
0.476562 0 0
0.480469 0 0
0.480469 0 0
0.484375 0 0
0.484375 0 0
0.488281 0 0
0.488281 0 0
0.492188 0 0
0.492188 0 0
0.496094 0 0
0.496094 0 0
0.5 0 0
0.5 0 0
0.503906 0 0
0.503906 0 0
0.507812 0 0
0.507812 0 0
0.511719 0 0
0.511719 0 0
0.515625 0 0
0.515625 0 0
0.519531 0 0
0.519531 0 0
0.523438 0 0
0.523438 0 0
0.527344 0 0
0.527344 0 0
0.53125 0 0
0.53125 0 0
0.535156 0 0
0.535156 0 0
0.539062 0 0
0.539062 0 0
0.542969 0 0
0.542969 0 0
0.546875 0 0
0.546875 0 0
0.550781 0 0
0.550781 0 0
0.554688 0 0
0.554688 0 0
0.558594 0 0
0.558594 0 0
0.5625 0 0
0.5625 0 0
0.566406 0 0
0.566406 0 0
0.570312 0 0
0.570312 0 0
0.574219 0 0
0.574219 0 0
0.578125 0 0
0.578125 0 0
0.582031 0 0
0.582031 0 0
0.585938 0 0
0.585938 0 0
0.589844 0 0
0.589844 0 0
0.59375 0 0
0.59375 0 0
0.597656 0 0
0.597656 0 0
0.601562 0 0
0.601562 0 0
0.605469 0 0
0.605469 0 0
0.609375 0 0
0.609375 0 0
0.613281 0 0
0.613281 0 0
0.617188 0 0
0.617188 0 0
0.621094 0 0
0.621094 0 0
0.625 0 0
0.625 0 0
0.628906 0 0
0.628906 0 0
0.632812 0 0
0.632812 0 0
0.636719 0 0
0.636719 0 0
0.640625 0 0
0.640625 0 0
0.644531 0 0
0.644531 0 0
0.648438 0 0
0.648438 0 0
0.652344 0 0
0.652344 0 0
0.65625 0 0
0.65625 0 0
0.660156 0 0
0.660156 0 0
0.664062 0 0
0.664062 0 0
0.667969 0 0
0.667969 0 0
0.671875 0 0
0.671875 0 0
0.675781 0 0
0.675781 0 0
0.679688 0 0
0.679688 0 0
0.683594 0 0
0.683594 0 0
0.6875 0 0
0.6875 0 0
0.691406 0 0
0.691406 0 0
0.695312 0 0
0.695312 0 0
0.699219 0 0
0.699219 0 0
0.703125 0 0
0.703125 0 0
0.707031 0 0
0.707031 0 0
0.710938 0 0
0.710938 0 0
0.714844 0 0
0.714844 0 0
0.71875 0 0
0.71875 0 0
0.722656 0 0
0.722656 0 0
0.726562 0 0
0.726562 0 0
0.730469 0 0
0.730469 0 0
0.734375 0 0
0.734375 0 0
0.738281 0 0
0.738281 0 0
0.742188 0 0
0.742188 0 0
0.746094 0 0
0.746094 0 0
0.75 0 0
0.75 0 0
0.753906 0 0
0.753906 0 0
0.757812 0 0
0.757812 0 0
0.761719 0 0
0.761719 0 0
0.765625 0 0
0.765625 0 0
0.769531 0 0
0.769531 0 0
0.773438 0 0
0.773438 0 0
0.777344 0 0
0.777344 0 0
0.78125 0 0
0.78125 0 0
0.785156 0 0
0.785156 0 0
0.789062 0 0
0.789062 0 0
0.792969 0 0
0.792969 0 0
0.796875 0 0
0.796875 0 0
0.800781 0 0
0.800781 0 0
0.804688 0 0
0.804688 0 0
0.808594 0 0
0.808594 0 0
0.8125 0 0
0.8125 0 0
0.816406 0 0
0.816406 0 0
0.820312 0 0
0.820312 0 0
0.824219 0 0
0.824219 0 0
0.828125 0 0
0.828125 0 0
0.832031 0 0
0.832031 0 0
0.835938 0 0
0.835938 0 0
0.839844 0 0
0.839844 0 0
0.84375 0 0
0.84375 0 0
0.847656 0 0
0.847656 0 0
0.851562 0 0
0.851562 0 0
0.855469 0 0
0.855469 0 0
0.859375 0 0
0.859375 0 0
0.863281 0 0
0.863281 0 0
0.867188 0 0
0.867188 0 0
0.871094 0 0
0.871094 0 0
0.875 0 0
0.875 0 0
0.878906 0 0
0.878906 0 0
0.882812 0 0
0.882812 0 0
0.886719 0 0
0.886719 0 0
0.890625 0 0
0.890625 0 0
0.894531 0 0
0.894531 0 0
0.898438 0 0
0.898438 0 0
0.902344 0 0
0.902344 0 0
0.90625 0 0
0.90625 0 0
0.910156 0 0
0.910156 0 0
0.914062 0 0
0.914062 0 0
0.917969 0 0
0.917969 0 0
0.921875 0 0
0.921875 0 0
0.925781 0 0
0.925781 0 0
0.929688 0 0
0.929688 0 0
0.933594 0 0
0.933594 0 0
0.9375 0 0
0.9375 0 0
0.941406 0 0
0.941406 0 0
0.945312 0 0
0.945312 0 0
0.949219 0 0
0.949219 0 0
0.953125 0 0
0.953125 0 0
0.957031 0 0
0.957031 0 0
0.960938 0 0
0.960938 0 0
0.964844 0 0
0.964844 0 0
0.96875 0 0
0.96875 0 0
0.972656 0 0
0.972656 0 0
0.976562 0 0
0.976562 0 0
0.980469 0 0
0.980469 0 0
0.984375 0 0
0.984375 0 0
0.988281 0 0
0.988281 0 0
0.992188 0 0
0.992188 0 0
0.996094 0 0
0.996094 0 0
1 0 0

CELLS 256 768
2	0	1
2	2	3
2	4	5
2	6	7
2	8	9
2	10	11
2	12	13
2	14	15
2	16	17
2	18	19
2	20	21
2	22	23
2	24	25
2	26	27
2	28	29
2	30	31
2	32	33
2	34	35
2	36	37
2	38	39
2	40	41
2	42	43
2	44	45
2	46	47
2	48	49
2	50	51
2	52	53
2	54	55
2	56	57
2	58	59
2	60	61
2	62	63
2	64	65
2	66	67
2	68	69
2	70	71
2	72	73
2	74	75
2	76	77
2	78	79
2	80	81
2	82	83
2	84	85
2	86	87
2	88	89
2	90	91
2	92	93
2	94	95
2	96	97
2	98	99
2	100	101
2	102	103
2	104	105
2	106	107
2	108	109
2	110	111
2	112	113
2	114	115
2	116	117
2	118	119
2	120	121
2	122	123
2	124	125
2	126	127
2	128	129
2	130	131
2	132	133
2	134	135
2	136	137
2	138	139
2	140	141
2	142	143
2	144	145
2	146	147
2	148	149
2	150	151
2	152	153
2	154	155
2	156	157
2	158	159
2	160	161
2	162	163
2	164	165
2	166	167
2	168	169
2	170	171
2	172	173
2	174	175
2	176	177
2	178	179
2	180	181
2	182	183
2	184	185
2	186	187
2	188	189
2	190	191
2	192	193
2	194	195
2	196	197
2	198	199
2	200	201
2	202	203
2	204	205
2	206	207
2	208	209
2	210	211
2	212	213
2	214	215
2	216	217
2	218	219
2	220	221
2	222	223
2	224	225
2	226	227
2	228	229
2	230	231
2	232	233
2	234	235
2	236	237
2	238	239
2	240	241
2	242	243
2	244	245
2	246	247
2	248	249
2	250	251
2	252	253
2	254	255
2	256	257
2	258	259
2	260	261
2	262	263
2	264	265
2	266	267
2	268	269
2	270	271
2	272	273
2	274	275
2	276	277
2	278	279
2	280	281
2	282	283
2	284	285
2	286	287
2	288	289
2	290	291
2	292	293
2	294	295
2	296	297
2	298	299
2	300	301
2	302	303
2	304	305
2	306	307
2	308	309
2	310	311
2	312	313
2	314	315
2	316	317
2	318	319
2	320	321
2	322	323
2	324	325
2	326	327
2	328	329
2	330	331
2	332	333
2	334	335
2	336	337
2	338	339
2	340	341
2	342	343
2	344	345
2	346	347
2	348	349
2	350	351
2	352	353
2	354	355
2	356	357
2	358	359
2	360	361
2	362	363
2	364	365
2	366	367
2	368	369
2	370	371
2	372	373
2	374	375
2	376	377
2	378	379
2	380	381
2	382	383
2	384	385
2	386	387
2	388	389
2	390	391
2	392	393
2	394	395
2	396	397
2	398	399
2	400	401
2	402	403
2	404	405
2	406	407
2	408	409
2	410	411
2	412	413
2	414	415
2	416	417
2	418	419
2	420	421
2	422	423
2	424	425
2	426	427
2	428	429
2	430	431
2	432	433
2	434	435
2	436	437
2	438	439
2	440	441
2	442	443
2	444	445
2	446	447
2	448	449
2	450	451
2	452	453
2	454	455
2	456	457
2	458	459
2	460	461
2	462	463
2	464	465
2	466	467
2	468	469
2	470	471
2	472	473
2	474	475
2	476	477
2	478	479
2	480	481
2	482	483
2	484	485
2	486	487
2	488	489
2	490	491
2	492	493
2	494	495
2	496	497
2	498	499
2	500	501
2	502	503
2	504	505
2	506	507
2	508	509
2	510	511

CELL_TYPES 256
 3 3 3 3 3 3 3 3 3 3 3 3 3 3 3 3 3 3 3 3 3 3 3 3 3 3 3 3 3 3 3 3 3 3 3 3 3 3 3 3 3 3 3 3 3 3 3 3 3 3 3 3 3 3 3 3 3 3 3 3 3 3 3 3 3 3 3 3 3 3 3 3 3 3 3 3 3 3 3 3 3 3 3 3 3 3 3 3 3 3 3 3 3 3 3 3 3 3 3 3 3 3 3 3 3 3 3 3 3 3 3 3 3 3 3 3 3 3 3 3 3 3 3 3 3 3 3 3 3 3 3 3 3 3 3 3 3 3 3 3 3 3 3 3 3 3 3 3 3 3 3 3 3 3 3 3 3 3 3 3 3 3 3 3 3 3 3 3 3 3 3 3 3 3 3 3 3 3 3 3 3 3 3 3 3 3 3 3 3 3 3 3 3 3 3 3 3 3 3 3 3 3 3 3 3 3 3 3 3 3 3 3 3 3 3 3 3 3 3 3 3 3 3 3 3 3 3 3 3 3 3 3 3 3 3 3 3 3 3 3 3 3 3 3 3 3 3 3 3 3 3 3 3 3 3 3
POINT_DATA 512
SCALARS solution_0 double 1
LOOKUP_TABLE default
0.300023 0.301177 0.301177 0.302331 0.302331 0.303486 0.303486 0.304642 0.304642 0.3058 0.3058 0.306959 0.306959 0.308121 0.308121 0.309285 0.309285 0.310451 0.310451 0.311622 0.311622 0.312795 0.312795 0.313973 0.313973 0.315155 0.315155 0.316341 0.316341 0.317533 0.317533 0.31873 0.31873 0.319933 0.319933 0.321141 0.321141 0.322356 0.322356 0.323578 0.323578 0.324807 0.324807 0.326044 0.326044 0.327288 0.327288 0.328541 0.328541 0.329802 0.329802 0.331072 0.331072 0.332351 0.332351 0.33364 0.33364 0.334939 0.334939 0.336248 0.336248 0.337567 0.337567 0.338898 0.338898 0.34024 0.34024 0.341593 0.341593 0.342958 0.342958 0.344336 0.344336 0.345726 0.345726 0.347129 0.347129 0.348546 0.348546 0.349976 0.349976 0.35142 0.35142 0.352878 0.352878 0.354351 0.354351 0.355839 0.355839 0.357342 0.357342 0.35886 0.35886 0.360395 0.360395 0.361945 0.361945 0.363512 0.363512 0.365096 0.365096 0.366697 0.366697 0.368315 0.368315 0.369951 0.369951 0.371605 0.371605 0.373278 0.373278 0.374969 0.374969 0.376678 0.376678 0.378407 0.378407 0.380156 0.380156 0.381924 0.381924 0.383712 0.383712 0.38552 0.38552 0.387349 0.387349 0.389199 0.389199 0.391069 0.391069 0.392961 0.392961 0.394875 0.394875 0.39681 0.39681 0.398768 0.398768 0.400748 0.400748 0.40275 0.40275 0.404775 0.404775 0.406823 0.406823 0.408894 0.408894 0.410989 0.410989 0.413107 0.413107 0.415249 0.415249 0.417415 0.417415 0.419606 0.419606 0.42182 0.42182 0.42406 0.42406 0.426324 0.426324 0.428613 0.428613 0.430927 0.430927 0.433266 0.433266 0.435631 0.435631 0.438021 0.438021 0.440437 0.440437 0.442878 0.442878 0.445346 0.445346 0.447839 0.447839 0.450359 0.450359 0.452904 0.452904 0.455476 0.455476 0.458075 0.458075 0.460699 0.460699 0.463351 0.463351 0.466028 0.466028 0.468733 0.468733 0.471464 0.471464 0.474221 0.474221 0.477005 0.477005 0.479816 0.479816 0.482653 0.482653 0.485517 0.485517 0.488408 0.488408 0.491325 0.491325 0.494268 0.494268 0.497238 0.497238 0.500234 0.500234 0.503256 0.503256 0.506305 0.506305 0.509379 0.509379 0.51248 0.51248 0.515606 0.515606 0.518758 0.518758 0.521935 0.521935 0.525137 0.525137 0.528365 0.528365 0.531617 0.531617 0.534894 0.534894 0.538195 0.538195 0.541521 0.541521 0.54487 0.54487 0.548244 0.548244 0.55164 0.55164 0.555059 0.555059 0.558502 0.558502 0.561966 0.561966 0.565453 0.565453 0.568961 0.568961 0.572491 0.572491 0.576041 0.576041 0.579612 0.579612 0.583203 0.583203 0.586813 0.586813 0.590443 0.590443 0.594091 0.594091 0.597758 0.597758 0.601442 0.601442 0.605143 0.605143 0.60886 0.60886 0.612594 0.612594 0.616343 0.616343 0.620107 0.620107 0.623885 0.623885 0.627676 0.627676 0.63148 0.63148 0.635297 0.635297 0.639125 0.639125 0.642964 0.642964 0.646813 0.646813 0.650671 0.650671 0.654537 0.654537 0.658412 0.658412 0.662293 0.662293 0.666181 0.666181 0.670074 0.670074 0.673971 0.673971 0.677872 0.677872 0.681775 0.681775 0.685681 0.685681 0.689587 0.689587 0.693493 0.693493 0.697398 0.697398 0.701301 0.701301 0.705201 0.705201 0.709096 0.709096 0.712987 0.712987 0.716872 0.716872 0.720749 0.720749 0.724618 0.724618 0.728477 0.728477 0.732326 0.732326 0.736164 0.736164 0.739989 0.739989 0.743799 0.743799 0.747595 0.747595 0.751374 0.751374 0.755136 0.755136 0.758879 0.758879 0.762602 0.762602 0.766303 0.766303 0.769983 0.769983 0.773638 0.773638 0.777269 0.777269 0.780873 0.780873 0.78445 0.78445 0.787998 0.787998 0.791516 0.791516 0.795002 0.795002 0.798455 0.798455 0.801874 0.801874 0.805257 0.805257 0.808604 0.808604 0.811912 0.811912 0.815181 0.815181 0.818408 0.818408 0.821594 0.821594 0.824735 0.824735 0.827832 0.827832 0.830881 0.830881 0.833883 0.833883 0.836836 0.836836 0.839738 0.839738 0.842589 0.842589 0.845386 0.845386 0.848128 0.848128 0.850814 0.850814 0.853443 0.853443 0.856013 0.856013 0.858523 0.858523 0.860971 0.860971 0.863357 0.863357 0.865679 0.865679 0.867936 0.867936 0.870126 0.870126 0.872248 0.872248 0.874302 0.874302 0.876285 0.876285 0.878197 0.878197 0.880036 0.880036 0.881801 0.881801 0.883491 0.883491 0.885105 0.885105 0.886643 0.886643 0.888102 0.888102 0.889481 0.889481 0.890781 0.890781 0.891999 0.891999 0.893136 0.893136 0.894189 0.894189 0.895158 0.895158 0.896042 0.896042 0.896841 0.896841 0.897554 0.897554 0.898179 0.898179 0.898717 0.898717 0.899166 0.899166 0.899526 0.899526 0.899797 0.899797 0.899977 0.899977 0.900067 0.900067 0.900066 0.900066 0.899974 0.899974 0.89979 0.89979 0.899514 0.899514 0.899145 0.899145 0.898685 0.898685 0.898131 0.898131 0.897486 0.897486 0.896748 0.896748 0.895917 0.895917 0.894994 0.894994 0.893979 0.893979 0.892872 
SCALARS solution_1 double 1
LOOKUP_TABLE default
0 0.00373213 0.00373213 0.00746415 0.00746415 0.0111959 0.0111959 0.0149274 0.0149274 0.0186584 0.0186584 0.0223889 0.0223889 0.0261187 0.0261187 0.0298477 0.0298477 0.0335758 0.0335758 0.0373029 0.0373029 0.0410289 0.0410289 0.0447536 0.0447536 0.0484769 0.0484769 0.0521988 0.0521988 0.0559191 0.0559191 0.0596377 0.0596377 0.0633544 0.0633544 0.0670691 0.0670691 0.0707817 0.0707817 0.0744921 0.0744921 0.0782002 0.0782002 0.0819058 0.0819058 0.0856087 0.0856087 0.0893089 0.0893089 0.0930062 0.0930062 0.0967004 0.0967004 0.100391 0.100391 0.104079 0.104079 0.107763 0.107763 0.111444 0.111444 0.115121 0.115121 0.118794 0.118794 0.122463 0.122463 0.126127 0.126127 0.129787 0.129787 0.133443 0.133443 0.137093 0.137093 0.140739 0.140739 0.14438 0.14438 0.148015 0.148015 0.151645 0.151645 0.155269 0.155269 0.158887 0.158887 0.162499 0.162499 0.166105 0.166105 0.169704 0.169704 0.173296 0.173296 0.176882 0.176882 0.18046 0.18046 0.184031 0.184031 0.187595 0.187595 0.19115 0.19115 0.194697 0.194697 0.198236 0.198236 0.201767 0.201767 0.205288 0.205288 0.208801 0.208801 0.212304 0.212304 0.215797 0.215797 0.219281 0.219281 0.222754 0.222754 0.226216 0.226216 0.229668 0.229668 0.233109 0.233109 0.236539 0.236539 0.239956 0.239956 0.243362 0.243362 0.246755 0.246755 0.250136 0.250136 0.253503 0.253503 0.256858 0.256858 0.260198 0.260198 0.263525 0.263525 0.266837 0.266837 0.270134 0.270134 0.273417 0.273417 0.276683 0.276683 0.279934 0.279934 0.283169 0.283169 0.286387 0.286387 0.289588 0.289588 0.292771 0.292771 0.295937 0.295937 0.299084 0.299084 0.302213 0.302213 0.305322 0.305322 0.308412 0.308412 0.311482 0.311482 0.314532 0.314532 0.31756 0.31756 0.320567 0.320567 0.323553 0.323553 0.326516 0.326516 0.329456 0.329456 0.332373 0.332373 0.335266 0.335266 0.338135 0.338135 0.340979 0.340979 0.343798 0.343798 0.346592 0.346592 0.349359 0.349359 0.352099 0.352099 0.354812 0.354812 0.357497 0.357497 0.360154 0.360154 0.362782 0.362782 0.36538 0.36538 0.367948 0.367948 0.370486 0.370486 0.372993 0.372993 0.375468 0.375468 0.37791 0.37791 0.38032 0.38032 0.382697 0.382697 0.385039 0.385039 0.387347 0.387347 0.38962 0.38962 0.391857 0.391857 0.394058 0.394058 0.396222 0.396222 0.398348 0.398348 0.400436 0.400436 0.402486 0.402486 0.404496 0.404496 0.406466 0.406466 0.408396 0.408396 0.410284 0.410284 0.412131 0.412131 0.413936 0.413936 0.415698 0.415698 0.417416 0.417416 0.419089 0.419089 0.420719 0.420719 0.422302 0.422302 0.42384 0.42384 0.425332 0.425332 0.426776 0.426776 0.428172 0.428172 0.42952 0.42952 0.430819 0.430819 0.432068 0.432068 0.433268 0.433268 0.434416 0.434416 0.435514 0.435514 0.436559 0.436559 0.437552 0.437552 0.438492 0.438492 0.439379 0.439379 0.440212 0.440212 0.44099 0.44099 0.441712 0.441712 0.44238 0.44238 0.442991 0.442991 0.443545 0.443545 0.444042 0.444042 0.444482 0.444482 0.444864 0.444864 0.445186 0.445186 0.44545 0.44545 0.445655 0.445655 0.4458 0.4458 0.445884 0.445884 0.445908 0.445908 0.44587 0.44587 0.445771 0.445771 0.445611 0.445611 0.445388 0.445388 0.445103 0.445103 0.444755 0.444755 0.444344 0.444344 0.44387 0.44387 0.443332 0.443332 0.442731 0.442731 0.442065 0.442065 0.441336 0.441336 0.440542 0.440542 0.439683 0.439683 0.43876 0.43876 0.437773 0.437773 0.43672 0.43672 0.435603 0.435603 0.434421 0.434421 0.433174 0.433174 0.431863 0.431863 0.430486 0.430486 0.429045 0.429045 0.42754 0.42754 0.42597 0.42597 0.424336 0.424336 0.422637 0.422637 0.420875 0.420875 0.41905 0.41905 0.417161 0.417161 0.415209 0.415209 0.413194 0.413194 0.411117 0.411117 0.408979 0.408979 0.406778 0.406778 0.404518 0.404518 0.402196 0.402196 0.399815 0.399815 0.397374 0.397374 0.394875 0.394875 0.392318 0.392318 0.389704 0.389704 0.387033 0.387033 0.384306 0.384306 0.381524 0.381524 0.378689 0.378689 0.375799 0.375799 0.372858 0.372858 0.369865 0.369865 0.366821 0.366821 0.363729 0.363729 0.360588 0.360588 0.357399 0.357399 0.354165 0.354165 0.350886 0.350886 0.347563 0.347563 0.344198 0.344198 0.340791 0.340791 0.337345 0.337345 0.333861 0.333861 0.330339 0.330339 0.326782 0.326782 0.323191 0.323191 0.319568 0.319568 0.315913 0.315913 0.31223 0.31223 0.308519 0.308519 0.304781 0.304781 0.30102 0.30102 0.297236 0.297236 0.293431 0.293431 0.289608 0.289608 0.285767 0.285767 0.281911 0.281911 0.278042 0.278042 0.274162 0.274162 0.270272 0.270272 0.266376 0.266376 0.262474 0.262474 0.258569 0.258569 0.254662 0.254662 0.250757 0.250757 0.246856 0.246856 0.242959 0.242959 0.23907 0.23907 0.235192 0.235192 0.231325 0.231325 0.227472 0.227472 0.223637 0.223637 0.21982 0.21982 0.216024 0.216024 0.212252 0.212252 0.208506 
SCALARS solution_2 double 1
LOOKUP_TABLE default
0.00368532 0.00368624 0.00368624 0.00368936 0.00368936 0.0036942 0.0036942 0.00370043 0.00370043 0.00370775 0.00370775 0.00371594 0.00371594 0.00372481 0.00372481 0.00373422 0.00373422 0.00374406 0.00374406 0.00375423 0.00375423 0.00376467 0.00376467 0.0037753 0.0037753 0.00378609 0.00378609 0.003797 0.003797 0.003808 0.003808 0.00381906 0.00381906 0.00383016 0.00383016 0.00384128 0.00384128 0.00385242 0.00385242 0.00386357 0.00386357 0.0038747 0.0038747 0.00388583 0.00388583 0.00389693 0.00389693 0.00390801 0.00390801 0.00391906 0.00391906 0.00393008 0.00393008 0.00394105 0.00394105 0.00395199 0.00395199 0.00396287 0.00396287 0.00397371 0.00397371 0.0039845 0.0039845 0.00399523 0.00399523 0.0040059 0.0040059 0.00401651 0.00401651 0.00402705 0.00402705 0.00403753 0.00403753 0.00404793 0.00404793 0.00405825 0.00405825 0.00406849 0.00406849 0.00407865 0.00407865 0.00408872 0.00408872 0.00409869 0.00409869 0.00410856 0.00410856 0.00411833 0.00411833 0.004128 0.004128 0.00413754 0.00413754 0.00414697 0.00414697 0.00415627 0.00415627 0.00416545 0.00416545 0.00417448 0.00417448 0.00418337 0.00418337 0.00419211 0.00419211 0.00420069 0.00420069 0.0042091 0.0042091 0.00421734 0.00421734 0.0042254 0.0042254 0.00423327 0.00423327 0.00424095 0.00424095 0.00424841 0.00424841 0.00425566 0.00425566 0.00426268 0.00426268 0.00426947 0.00426947 0.00427601 0.00427601 0.00428229 0.00428229 0.00428831 0.00428831 0.00429404 0.00429404 0.00429948 0.00429948 0.00430462 0.00430462 0.00430944 0.00430944 0.00431392 0.00431392 0.00431807 0.00431807 0.00432185 0.00432185 0.00432526 0.00432526 0.00432828 0.00432828 0.0043309 0.0043309 0.00433309 0.00433309 0.00433485 0.00433485 0.00433615 0.00433615 0.00433698 0.00433698 0.00433732 0.00433732 0.00433715 0.00433715 0.00433645 0.00433645 0.0043352 0.0043352 0.00433338 0.00433338 0.00433096 0.00433096 0.00432794 0.00432794 0.00432428 0.00432428 0.00431996 0.00431996 0.00431496 0.00431496 0.00430926 0.00430926 0.00430282 0.00430282 0.00429564 0.00429564 0.00428767 0.00428767 0.00427889 0.00427889 0.00426928 0.00426928 0.00425881 0.00425881 0.00424745 0.00424745 0.00423518 0.00423518 0.00422196 0.00422196 0.00420776 0.00420776 0.00419256 0.00419256 0.00417632 0.00417632 0.00415902 0.00415902 0.00414062 0.00414062 0.00412109 0.00412109 0.0041004 0.0041004 0.00407851 0.00407851 0.0040554 0.0040554 0.00403103 0.00403103 0.00400537 0.00400537 0.00397838 0.00397838 0.00395002 0.00395002 0.00392028 0.00392028 0.0038891 0.0038891 0.00385647 0.00385647 0.00382233 0.00382233 0.00378666 0.00378666 0.00374943 0.00374943 0.00371059 0.00371059 0.00367012 0.00367012 0.00362797 0.00362797 0.00358413 0.00358413 0.00353854 0.00353854 0.00349118 0.00349118 0.00344201 0.00344201 0.003391 0.003391 0.00333813 0.00333813 0.00328334 0.00328334 0.00322662 0.00322662 0.00316794 0.00316794 0.00310725 0.00310725 0.00304454 0.00304454 0.00297977 0.00297977 0.00291291 0.00291291 0.00284394 0.00284394 0.00277284 0.00277284 0.00269956 0.00269956 0.0026241 0.0026241 0.00254642 0.00254642 0.0024665 0.0024665 0.00238433 0.00238433 0.00229989 0.00229989 0.00221314 0.00221314 0.00212409 0.00212409 0.00203271 0.00203271 0.00193898 0.00193898 0.00184291 0.00184291 0.00174446 0.00174446 0.00164365 0.00164365 0.00154045 0.00154045 0.00143487 0.00143487 0.00132689 0.00132689 0.00121653 0.00121653 0.00110378 0.00110378 0.00098864 0.00098864 0.000871119 0.000871119 0.000751223 0.000751223 0.000628962 0.000628962 0.000504348 0.000504348 0.000377396 0.000377396 0.000248121 0.000248121 0.000116545 0.000116545 -1.73121e-05 -1.73121e-05 -0.000153425 -0.000153425 -0.000291766 -0.000291766 -0.000432306 -0.000432306 -0.000575011 -0.000575011 -0.000719846 -0.000719846 -0.000866773 -0.000866773 -0.00101575 -0.00101575 -0.00116673 -0.00116673 -0.00131967 -0.00131967 -0.00147452 -0.00147452 -0.00163122 -0.00163122 -0.00178972 -0.00178972 -0.00194996 -0.00194996 -0.00211187 -0.00211187 -0.00227539 -0.00227539 -0.00244045 -0.00244045 -0.00260697 -0.00260697 -0.00277489 -0.00277489 -0.00294412 -0.00294412 -0.00311458 -0.00311458 -0.00328618 -0.00328618 -0.00345884 -0.00345884 -0.00363246 -0.00363246 -0.00380695 -0.00380695 -0.00398222 -0.00398222 -0.00415814 -0.00415814 -0.00433464 -0.00433464 -0.00451158 -0.00451158 -0.00468888 -0.00468888 -0.0048664 -0.0048664 -0.00504404 -0.00504404 -0.00522166 -0.00522166 -0.00539916 -0.00539916 -0.0055764 -0.0055764 -0.00575326 -0.00575326 -0.0059296 -0.0059296 -0.00610529 -0.00610529 -0.00628019 -0.00628019 -0.00645417 -0.00645417 -0.00662708 -0.00662708 -0.00679878 -0.00679878 -0.00696911 -0.00696911 -0.00713795 -0.00713795 -0.00730513 -0.00730513 -0.0074705 -0.0074705 -0.00763391 -0.00763391 -0.0077952 -0.0077952 -0.00795423 -0.00795423 -0.00811082 -0.00811082 -0.00826484 -0.00826484 -0.0084161 -0.0084161 -0.00856447 -0.00856447 -0.00870977 -0.00870977 -0.00885185 -0.00885185 -0.00899054 -0.00899054 -0.0091257 -0.0091257 -0.00925715 -0.00925715 -0.00938474 -0.00938474 -0.00950832 -0.00950832 -0.00962773 -0.00962773 -0.00974281 -0.00974281 -0.00985341 -0.00985341 -0.00995939 -0.00995939 -0.0100606 -0.0100606 -0.0101569 -0.0101569 -0.0102481 -0.0102481 -0.0103341 -0.0103341 -0.0104148 -0.0104148 -0.0104901 -0.0104901 -0.0105597 -0.0105597 -0.0106237 -0.0106237 -0.0106818 -0.0106818 -0.010734 -0.010734 -0.0107802 -0.0107802 -0.0108202 -0.0108202 -0.0108541 -0.0108541 -0.0108817 -0.0108817 -0.0109029 -0.0109029 -0.0109178 -0.0109178 -0.0109261 -0.0109261 -0.010928 -0.010928 -0.0109234 -0.0109234 -0.0109123 -0.0109123 -0.0108946 -0.0108946 -0.0108705 -0.0108705 -0.0108399 -0.0108399 -0.0108029 -0.0108029 -0.0107595 -0.0107595 -0.01071 -0.01071 -0.0106544 -0.0106544 -0.0105936 -0.0105936 -0.0105315 -0.0105315 -0.0104937 
SCALARS solution_3 double 1
LOOKUP_TABLE default