# vtk DataFile Version 3.0
#This file was generated by the deal.II library on 2021/7/30 at 18:22:27
ASCII
DATASET UNSTRUCTURED_GRID

POINTS 512 double
0 0 0
0.00390625 0 0
0.00390625 0 0
0.0078125 0 0
0.0078125 0 0
0.0117188 0 0
0.0117188 0 0
0.015625 0 0
0.015625 0 0
0.0195312 0 0
0.0195312 0 0
0.0234375 0 0
0.0234375 0 0
0.0273438 0 0
0.0273438 0 0
0.03125 0 0
0.03125 0 0
0.0351562 0 0
0.0351562 0 0
0.0390625 0 0
0.0390625 0 0
0.0429688 0 0
0.0429688 0 0
0.046875 0 0
0.046875 0 0
0.0507812 0 0
0.0507812 0 0
0.0546875 0 0
0.0546875 0 0
0.0585938 0 0
0.0585938 0 0
0.0625 0 0
0.0625 0 0
0.0664062 0 0
0.0664062 0 0
0.0703125 0 0
0.0703125 0 0
0.0742188 0 0
0.0742188 0 0
0.078125 0 0
0.078125 0 0
0.0820312 0 0
0.0820312 0 0
0.0859375 0 0
0.0859375 0 0
0.0898438 0 0
0.0898438 0 0
0.09375 0 0
0.09375 0 0
0.0976562 0 0
0.0976562 0 0
0.101562 0 0
0.101562 0 0
0.105469 0 0
0.105469 0 0
0.109375 0 0
0.109375 0 0
0.113281 0 0
0.113281 0 0
0.117188 0 0
0.117188 0 0
0.121094 0 0
0.121094 0 0
0.125 0 0
0.125 0 0
0.128906 0 0
0.128906 0 0
0.132812 0 0
0.132812 0 0
0.136719 0 0
0.136719 0 0
0.140625 0 0
0.140625 0 0
0.144531 0 0
0.144531 0 0
0.148438 0 0
0.148438 0 0
0.152344 0 0
0.152344 0 0
0.15625 0 0
0.15625 0 0
0.160156 0 0
0.160156 0 0
0.164062 0 0
0.164062 0 0
0.167969 0 0
0.167969 0 0
0.171875 0 0
0.171875 0 0
0.175781 0 0
0.175781 0 0
0.179688 0 0
0.179688 0 0
0.183594 0 0
0.183594 0 0
0.1875 0 0
0.1875 0 0
0.191406 0 0
0.191406 0 0
0.195312 0 0
0.195312 0 0
0.199219 0 0
0.199219 0 0
0.203125 0 0
0.203125 0 0
0.207031 0 0
0.207031 0 0
0.210938 0 0
0.210938 0 0
0.214844 0 0
0.214844 0 0
0.21875 0 0
0.21875 0 0
0.222656 0 0
0.222656 0 0
0.226562 0 0
0.226562 0 0
0.230469 0 0
0.230469 0 0
0.234375 0 0
0.234375 0 0
0.238281 0 0
0.238281 0 0
0.242188 0 0
0.242188 0 0
0.246094 0 0
0.246094 0 0
0.25 0 0
0.25 0 0
0.253906 0 0
0.253906 0 0
0.257812 0 0
0.257812 0 0
0.261719 0 0
0.261719 0 0
0.265625 0 0
0.265625 0 0
0.269531 0 0
0.269531 0 0
0.273438 0 0
0.273438 0 0
0.277344 0 0
0.277344 0 0
0.28125 0 0
0.28125 0 0
0.285156 0 0
0.285156 0 0
0.289062 0 0
0.289062 0 0
0.292969 0 0
0.292969 0 0
0.296875 0 0
0.296875 0 0
0.300781 0 0
0.300781 0 0
0.304688 0 0
0.304688 0 0
0.308594 0 0
0.308594 0 0
0.3125 0 0
0.3125 0 0
0.316406 0 0
0.316406 0 0
0.320312 0 0
0.320312 0 0
0.324219 0 0
0.324219 0 0
0.328125 0 0
0.328125 0 0
0.332031 0 0
0.332031 0 0
0.335938 0 0
0.335938 0 0
0.339844 0 0
0.339844 0 0
0.34375 0 0
0.34375 0 0
0.347656 0 0
0.347656 0 0
0.351562 0 0
0.351562 0 0
0.355469 0 0
0.355469 0 0
0.359375 0 0
0.359375 0 0
0.363281 0 0
0.363281 0 0
0.367188 0 0
0.367188 0 0
0.371094 0 0
0.371094 0 0
0.375 0 0
0.375 0 0
0.378906 0 0
0.378906 0 0
0.382812 0 0
0.382812 0 0
0.386719 0 0
0.386719 0 0
0.390625 0 0
0.390625 0 0
0.394531 0 0
0.394531 0 0
0.398438 0 0
0.398438 0 0
0.402344 0 0
0.402344 0 0
0.40625 0 0
0.40625 0 0
0.410156 0 0
0.410156 0 0
0.414062 0 0
0.414062 0 0
0.417969 0 0
0.417969 0 0
0.421875 0 0
0.421875 0 0
0.425781 0 0
0.425781 0 0
0.429688 0 0
0.429688 0 0
0.433594 0 0
0.433594 0 0
0.4375 0 0
0.4375 0 0
0.441406 0 0
0.441406 0 0
0.445312 0 0
0.445312 0 0
0.449219 0 0
0.449219 0 0
0.453125 0 0
0.453125 0 0
0.457031 0 0
0.457031 0 0
0.460938 0 0
0.460938 0 0
0.464844 0 0
0.464844 0 0
0.46875 0 0
0.46875 0 0
0.472656 0 0
0.472656 0 0
0.476562 0 0
0.476562 0 0
0.480469 0 0
0.480469 0 0
0.484375 0 0
0.484375 0 0
0.488281 0 0
0.488281 0 0
0.492188 0 0
0.492188 0 0
0.496094 0 0
0.496094 0 0
0.5 0 0
0.5 0 0
0.503906 0 0
0.503906 0 0
0.507812 0 0
0.507812 0 0
0.511719 0 0
0.511719 0 0
0.515625 0 0
0.515625 0 0
0.519531 0 0
0.519531 0 0
0.523438 0 0
0.523438 0 0
0.527344 0 0
0.527344 0 0
0.53125 0 0
0.53125 0 0
0.535156 0 0
0.535156 0 0
0.539062 0 0
0.539062 0 0
0.542969 0 0
0.542969 0 0
0.546875 0 0
0.546875 0 0
0.550781 0 0
0.550781 0 0
0.554688 0 0
0.554688 0 0
0.558594 0 0
0.558594 0 0
0.5625 0 0
0.5625 0 0
0.566406 0 0
0.566406 0 0
0.570312 0 0
0.570312 0 0
0.574219 0 0
0.574219 0 0
0.578125 0 0
0.578125 0 0
0.582031 0 0
0.582031 0 0
0.585938 0 0
0.585938 0 0
0.589844 0 0
0.589844 0 0
0.59375 0 0
0.59375 0 0
0.597656 0 0
0.597656 0 0
0.601562 0 0
0.601562 0 0
0.605469 0 0
0.605469 0 0
0.609375 0 0
0.609375 0 0
0.613281 0 0
0.613281 0 0
0.617188 0 0
0.617188 0 0
0.621094 0 0
0.621094 0 0
0.625 0 0
0.625 0 0
0.628906 0 0
0.628906 0 0
0.632812 0 0
0.632812 0 0
0.636719 0 0
0.636719 0 0
0.640625 0 0
0.640625 0 0
0.644531 0 0
0.644531 0 0
0.648438 0 0
0.648438 0 0
0.652344 0 0
0.652344 0 0
0.65625 0 0
0.65625 0 0
0.660156 0 0
0.660156 0 0
0.664062 0 0
0.664062 0 0
0.667969 0 0
0.667969 0 0
0.671875 0 0
0.671875 0 0
0.675781 0 0
0.675781 0 0
0.679688 0 0
0.679688 0 0
0.683594 0 0
0.683594 0 0
0.6875 0 0
0.6875 0 0
0.691406 0 0
0.691406 0 0
0.695312 0 0
0.695312 0 0
0.699219 0 0
0.699219 0 0
0.703125 0 0
0.703125 0 0
0.707031 0 0
0.707031 0 0
0.710938 0 0
0.710938 0 0
0.714844 0 0
0.714844 0 0
0.71875 0 0
0.71875 0 0
0.722656 0 0
0.722656 0 0
0.726562 0 0
0.726562 0 0
0.730469 0 0
0.730469 0 0
0.734375 0 0
0.734375 0 0
0.738281 0 0
0.738281 0 0
0.742188 0 0
0.742188 0 0
0.746094 0 0
0.746094 0 0
0.75 0 0
0.75 0 0
0.753906 0 0
0.753906 0 0
0.757812 0 0
0.757812 0 0
0.761719 0 0
0.761719 0 0
0.765625 0 0
0.765625 0 0
0.769531 0 0
0.769531 0 0
0.773438 0 0
0.773438 0 0
0.777344 0 0
0.777344 0 0
0.78125 0 0
0.78125 0 0
0.785156 0 0
0.785156 0 0
0.789062 0 0
0.789062 0 0
0.792969 0 0
0.792969 0 0
0.796875 0 0
0.796875 0 0
0.800781 0 0
0.800781 0 0
0.804688 0 0
0.804688 0 0
0.808594 0 0
0.808594 0 0
0.8125 0 0
0.8125 0 0
0.816406 0 0
0.816406 0 0
0.820312 0 0
0.820312 0 0
0.824219 0 0
0.824219 0 0
0.828125 0 0
0.828125 0 0
0.832031 0 0
0.832031 0 0
0.835938 0 0
0.835938 0 0
0.839844 0 0
0.839844 0 0
0.84375 0 0
0.84375 0 0
0.847656 0 0
0.847656 0 0
0.851562 0 0
0.851562 0 0
0.855469 0 0
0.855469 0 0
0.859375 0 0
0.859375 0 0
0.863281 0 0
0.863281 0 0
0.867188 0 0
0.867188 0 0
0.871094 0 0
0.871094 0 0
0.875 0 0
0.875 0 0
0.878906 0 0
0.878906 0 0
0.882812 0 0
0.882812 0 0
0.886719 0 0
0.886719 0 0
0.890625 0 0
0.890625 0 0
0.894531 0 0
0.894531 0 0
0.898438 0 0
0.898438 0 0
0.902344 0 0
0.902344 0 0
0.90625 0 0
0.90625 0 0
0.910156 0 0
0.910156 0 0
0.914062 0 0
0.914062 0 0
0.917969 0 0
0.917969 0 0
0.921875 0 0
0.921875 0 0
0.925781 0 0
0.925781 0 0
0.929688 0 0
0.929688 0 0
0.933594 0 0
0.933594 0 0
0.9375 0 0
0.9375 0 0
0.941406 0 0
0.941406 0 0
0.945312 0 0
0.945312 0 0
0.949219 0 0
0.949219 0 0
0.953125 0 0
0.953125 0 0
0.957031 0 0
0.957031 0 0
0.960938 0 0
0.960938 0 0
0.964844 0 0
0.964844 0 0
0.96875 0 0
0.96875 0 0
0.972656 0 0
0.972656 0 0
0.976562 0 0
0.976562 0 0
0.980469 0 0
0.980469 0 0
0.984375 0 0
0.984375 0 0
0.988281 0 0
0.988281 0 0
0.992188 0 0
0.992188 0 0
0.996094 0 0
0.996094 0 0
1 0 0

CELLS 256 768
2	0	1
2	2	3
2	4	5
2	6	7
2	8	9
2	10	11
2	12	13
2	14	15
2	16	17
2	18	19
2	20	21
2	22	23
2	24	25
2	26	27
2	28	29
2	30	31
2	32	33
2	34	35
2	36	37
2	38	39
2	40	41
2	42	43
2	44	45
2	46	47
2	48	49
2	50	51
2	52	53
2	54	55
2	56	57
2	58	59
2	60	61
2	62	63
2	64	65
2	66	67
2	68	69
2	70	71
2	72	73
2	74	75
2	76	77
2	78	79
2	80	81
2	82	83
2	84	85
2	86	87
2	88	89
2	90	91
2	92	93
2	94	95
2	96	97
2	98	99
2	100	101
2	102	103
2	104	105
2	106	107
2	108	109
2	110	111
2	112	113
2	114	115
2	116	117
2	118	119
2	120	121
2	122	123
2	124	125
2	126	127
2	128	129
2	130	131
2	132	133
2	134	135
2	136	137
2	138	139
2	140	141
2	142	143
2	144	145
2	146	147
2	148	149
2	150	151
2	152	153
2	154	155
2	156	157
2	158	159
2	160	161
2	162	163
2	164	165
2	166	167
2	168	169
2	170	171
2	172	173
2	174	175
2	176	177
2	178	179
2	180	181
2	182	183
2	184	185
2	186	187
2	188	189
2	190	191
2	192	193
2	194	195
2	196	197
2	198	199
2	200	201
2	202	203
2	204	205
2	206	207
2	208	209
2	210	211
2	212	213
2	214	215
2	216	217
2	218	219
2	220	221
2	222	223
2	224	225
2	226	227
2	228	229
2	230	231
2	232	233
2	234	235
2	236	237
2	238	239
2	240	241
2	242	243
2	244	245
2	246	247
2	248	249
2	250	251
2	252	253
2	254	255
2	256	257
2	258	259
2	260	261
2	262	263
2	264	265
2	266	267
2	268	269
2	270	271
2	272	273
2	274	275
2	276	277
2	278	279
2	280	281
2	282	283
2	284	285
2	286	287
2	288	289
2	290	291
2	292	293
2	294	295
2	296	297
2	298	299
2	300	301
2	302	303
2	304	305
2	306	307
2	308	309
2	310	311
2	312	313
2	314	315
2	316	317
2	318	319
2	320	321
2	322	323
2	324	325
2	326	327
2	328	329
2	330	331
2	332	333
2	334	335
2	336	337
2	338	339
2	340	341
2	342	343
2	344	345
2	346	347
2	348	349
2	350	351
2	352	353
2	354	355
2	356	357
2	358	359
2	360	361
2	362	363
2	364	365
2	366	367
2	368	369
2	370	371
2	372	373
2	374	375
2	376	377
2	378	379
2	380	381
2	382	383
2	384	385
2	386	387
2	388	389
2	390	391
2	392	393
2	394	395
2	396	397
2	398	399
2	400	401
2	402	403
2	404	405
2	406	407
2	408	409
2	410	411
2	412	413
2	414	415
2	416	417
2	418	419
2	420	421
2	422	423
2	424	425
2	426	427
2	428	429
2	430	431
2	432	433
2	434	435
2	436	437
2	438	439
2	440	441
2	442	443
2	444	445
2	446	447
2	448	449
2	450	451
2	452	453
2	454	455
2	456	457
2	458	459
2	460	461
2	462	463
2	464	465
2	466	467
2	468	469
2	470	471
2	472	473
2	474	475
2	476	477
2	478	479
2	480	481
2	482	483
2	484	485
2	486	487
2	488	489
2	490	491
2	492	493
2	494	495
2	496	497
2	498	499
2	500	501
2	502	503
2	504	505
2	506	507
2	508	509
2	510	511

CELL_TYPES 256
 3 3 3 3 3 3 3 3 3 3 3 3 3 3 3 3 3 3 3 3 3 3 3 3 3 3 3 3 3 3 3 3 3 3 3 3 3 3 3 3 3 3 3 3 3 3 3 3 3 3 3 3 3 3 3 3 3 3 3 3 3 3 3 3 3 3 3 3 3 3 3 3 3 3 3 3 3 3 3 3 3 3 3 3 3 3 3 3 3 3 3 3 3 3 3 3 3 3 3 3 3 3 3 3 3 3 3 3 3 3 3 3 3 3 3 3 3 3 3 3 3 3 3 3 3 3 3 3 3 3 3 3 3 3 3 3 3 3 3 3 3 3 3 3 3 3 3 3 3 3 3 3 3 3 3 3 3 3 3 3 3 3 3 3 3 3 3 3 3 3 3 3 3 3 3 3 3 3 3 3 3 3 3 3 3 3 3 3 3 3 3 3 3 3 3 3 3 3 3 3 3 3 3 3 3 3 3 3 3 3 3 3 3 3 3 3 3 3 3 3 3 3 3 3 3 3 3 3 3 3 3 3 3 3 3 3 3 3 3 3 3 3 3 3 3 3 3 3 3 3 3 3 3 3 3 3
POINT_DATA 512
SCALARS solution_0 double 1
LOOKUP_TABLE default
0.300003 0.301157 0.301157 0.302312 0.302312 0.303467 0.303467 0.304624 0.304624 0.305782 0.305782 0.306942 0.306942 0.308104 0.308104 0.309268 0.309268 0.310435 0.310435 0.311606 0.311606 0.31278 0.31278 0.313958 0.313958 0.31514 0.31514 0.316327 0.316327 0.317519 0.317519 0.318716 0.318716 0.319919 0.319919 0.321128 0.321128 0.322344 0.322344 0.323566 0.323566 0.324795 0.324795 0.326032 0.326032 0.327276 0.327276 0.328529 0.328529 0.32979 0.32979 0.33106 0.33106 0.33234 0.33234 0.333629 0.333629 0.334927 0.334927 0.336236 0.336236 0.337556 0.337556 0.338886 0.338886 0.340228 0.340228 0.341581 0.341581 0.342947 0.342947 0.344324 0.344324 0.345714 0.345714 0.347117 0.347117 0.348534 0.348534 0.349964 0.349964 0.351408 0.351408 0.352866 0.352866 0.354339 0.354339 0.355826 0.355826 0.357329 0.357329 0.358848 0.358848 0.360382 0.360382 0.361932 0.361932 0.363499 0.363499 0.365083 0.365083 0.366684 0.366684 0.368302 0.368302 0.369938 0.369938 0.371592 0.371592 0.373264 0.373264 0.374955 0.374955 0.376664 0.376664 0.378393 0.378393 0.380142 0.380142 0.38191 0.38191 0.383698 0.383698 0.385506 0.385506 0.387335 0.387335 0.389185 0.389185 0.391055 0.391055 0.392947 0.392947 0.394861 0.394861 0.396797 0.396797 0.398754 0.398754 0.400734 0.400734 0.402737 0.402737 0.404762 0.404762 0.40681 0.40681 0.408882 0.408882 0.410977 0.410977 0.413095 0.413095 0.415238 0.415238 0.417404 0.417404 0.419595 0.419595 0.42181 0.42181 0.42405 0.42405 0.426314 0.426314 0.428604 0.428604 0.430918 0.430918 0.433258 0.433258 0.435623 0.435623 0.438014 0.438014 0.440431 0.440431 0.442873 0.442873 0.445341 0.445341 0.447836 0.447836 0.450356 0.450356 0.452903 0.452903 0.455476 0.455476 0.458075 0.458075 0.460701 0.460701 0.463353 0.463353 0.466032 0.466032 0.468737 0.468737 0.471469 0.471469 0.474228 0.474228 0.477013 0.477013 0.479825 0.479825 0.482664 0.482664 0.485529 0.485529 0.488421 0.488421 0.491339 0.491339 0.494284 0.494284 0.497255 0.497255 0.500253 0.500253 0.503277 0.503277 0.506327 0.506327 0.509403 0.509403 0.512505 0.512505 0.515632 0.515632 0.518786 0.518786 0.521964 0.521964 0.525168 0.525168 0.528397 0.528397 0.531651 0.531651 0.53493 0.53493 0.538233 0.538233 0.54156 0.54156 0.544911 0.544911 0.548286 0.548286 0.551684 0.551684 0.555105 0.555105 0.558548 0.558548 0.562015 0.562015 0.565503 0.565503 0.569012 0.569012 0.572543 0.572543 0.576095 0.576095 0.579668 0.579668 0.58326 0.58326 0.586872 0.586872 0.590503 0.590503 0.594152 0.594152 0.59782 0.59782 0.601505 0.601505 0.605208 0.605208 0.608926 0.608926 0.612661 0.612661 0.616411 0.616411 0.620176 0.620176 0.623955 0.623955 0.627747 0.627747 0.631552 0.631552 0.63537 0.63537 0.639199 0.639199 0.643038 0.643038 0.646888 0.646888 0.650746 0.650746 0.654614 0.654614 0.658489 0.658489 0.662371 0.662371 0.666259 0.666259 0.670152 0.670152 0.674049 0.674049 0.67795 0.67795 0.681854 0.681854 0.685759 0.685759 0.689666 0.689666 0.693572 0.693572 0.697476 0.697476 0.701379 0.701379 0.705279 0.705279 0.709174 0.709174 0.713065 0.713065 0.716949 0.716949 0.720826 0.720826 0.724694 0.724694 0.728553 0.728553 0.732401 0.732401 0.736238 0.736238 0.740062 0.740062 0.743872 0.743872 0.747667 0.747667 0.751445 0.751445 0.755206 0.755206 0.758948 0.758948 0.76267 0.76267 0.766371 0.766371 0.770049 0.770049 0.773703 0.773703 0.777333 0.777333 0.780936 0.780936 0.784512 0.784512 0.788058 0.788058 0.791574 0.791574 0.795059 0.795059 0.798511 0.798511 0.801929 0.801929 0.805311 0.805311 0.808656 0.808656 0.811962 0.811962 0.81523 0.81523 0.818456 0.818456 0.821639 0.821639 0.824779 0.824779 0.827874 0.827874 0.830922 0.830922 0.833923 0.833923 0.836874 0.836874 0.839775 0.839775 0.842623 0.842623 0.845419 0.845419 0.848159 0.848159 0.850844 0.850844 0.853471 0.853471 0.856039 0.856039 0.858548 0.858548 0.860995 0.860995 0.863379 0.863379 0.865699 0.865699 0.867954 0.867954 0.870143 0.870143 0.872264 0.872264 0.874315 0.874315 0.876297 0.876297 0.878207 0.878207 0.880044 0.880044 0.881808 0.881808 0.883497 0.883497 0.885109 0.885109 0.886645 0.886645 0.888102 0.888102 0.889481 0.889481 0.890779 0.890779 0.891995 0.891995 0.89313 0.89313 0.894182 0.894182 0.895149 0.895149 0.896032 0.896032 0.89683 0.89683 0.897541 0.897541 0.898165 0.898165 0.898701 0.898701 0.899148 0.899148 0.899507 0.899507 0.899776 0.899776 0.899955 0.899955 0.900043 0.900043 0.900041 0.900041 0.899947 0.899947 0.899761 0.899761 0.899484 0.899484 0.899114 0.899114 0.898652 0.898652 0.898097 0.898097 0.89745 0.89745 0.896711 0.896711 0.895878 0.895878 0.894954 0.894954 0.893938 0.893938 0.892829 
SCALARS solution_1 double 1
LOOKUP_TABLE default
0 0.0037318 0.0037318 0.00746348 0.00746348 0.0111949 0.0111949 0.0149261 0.0149261 0.0186568 0.0186568 0.0223869 0.0223869 0.0261164 0.0261164 0.0298451 0.0298451 0.0335728 0.0335728 0.0372996 0.0372996 0.0410253 0.0410253 0.0447497 0.0447497 0.0484728 0.0484728 0.0521943 0.0521943 0.0559143 0.0559143 0.0596326 0.0596326 0.063349 0.063349 0.0670635 0.0670635 0.0707759 0.0707759 0.074486 0.074486 0.0781938 0.0781938 0.0818991 0.0818991 0.0856018 0.0856018 0.0893018 0.0893018 0.0929988 0.0929988 0.0966929 0.0966929 0.100384 0.100384 0.104071 0.104071 0.107755 0.107755 0.111436 0.111436 0.115112 0.115112 0.118785 0.118785 0.122454 0.122454 0.126118 0.126118 0.129778 0.129778 0.133433 0.133433 0.137084 0.137084 0.140729 0.140729 0.14437 0.14437 0.148005 0.148005 0.151634 0.151634 0.155258 0.155258 0.158876 0.158876 0.162488 0.162488 0.166094 0.166094 0.169693 0.169693 0.173285 0.173285 0.176871 0.176871 0.180449 0.180449 0.18402 0.18402 0.187583 0.187583 0.191138 0.191138 0.194685 0.194685 0.198224 0.198224 0.201755 0.201755 0.205276 0.205276 0.208788 0.208788 0.212291 0.212291 0.215784 0.215784 0.219267 0.219267 0.22274 0.22274 0.226203 0.226203 0.229655 0.229655 0.233095 0.233095 0.236524 0.236524 0.239942 0.239942 0.243347 0.243347 0.24674 0.24674 0.250121 0.250121 0.253488 0.253488 0.256842 0.256842 0.260182 0.260182 0.263508 0.263508 0.26682 0.26682 0.270117 0.270117 0.273399 0.273399 0.276665 0.276665 0.279916 0.279916 0.28315 0.28315 0.286367 0.286367 0.289568 0.289568 0.29275 0.29275 0.295915 0.295915 0.299062 0.299062 0.30219 0.30219 0.305299 0.305299 0.308388 0.308388 0.311457 0.311457 0.314506 0.314506 0.317533 0.317533 0.320539 0.320539 0.323524 0.323524 0.326486 0.326486 0.329425 0.329425 0.332341 0.332341 0.335233 0.335233 0.338101 0.338101 0.340944 0.340944 0.343761 0.343761 0.346553 0.346553 0.349319 0.349319 0.352058 0.352058 0.354769 0.354769 0.357452 0.357452 0.360108 0.360108 0.362734 0.362734 0.36533 0.36533 0.367897 0.367897 0.370432 0.370432 0.372937 0.372937 0.37541 0.37541 0.377851 0.377851 0.380258 0.380258 0.382633 0.382633 0.384973 0.384973 0.387278 0.387278 0.389549 0.389549 0.391783 0.391783 0.393981 0.393981 0.396143 0.396143 0.398266 0.398266 0.400352 0.400352 0.402398 0.402398 0.404406 0.404406 0.406373 0.406373 0.4083 0.4083 0.410185 0.410185 0.412029 0.412029 0.41383 0.41383 0.415589 0.415589 0.417303 0.417303 0.418974 0.418974 0.4206 0.4206 0.42218 0.42218 0.423714 0.423714 0.425202 0.425202 0.426642 0.426642 0.428035 0.428035 0.429379 0.429379 0.430674 0.430674 0.43192 0.43192 0.433115 0.433115 0.43426 0.43426 0.435353 0.435353 0.436395 0.436395 0.437384 0.437384 0.43832 0.43832 0.439203 0.439203 0.440031 0.440031 0.440805 0.440805 0.441524 0.441524 0.442187 0.442187 0.442794 0.442794 0.443344 0.443344 0.443837 0.443837 0.444273 0.444273 0.44465 0.44465 0.444969 0.444969 0.445229 0.445229 0.445429 0.445429 0.445569 0.445569 0.44565 0.44565 0.445669 0.445669 0.445628 0.445628 0.445525 0.445525 0.44536 0.44536 0.445133 0.445133 0.444844 0.444844 0.444492 0.444492 0.444077 0.444077 0.443599 0.443599 0.443058 0.443058 0.442452 0.442452 0.441783 0.441783 0.44105 0.44105 0.440252 0.440252 0.43939 0.43939 0.438464 0.438464 0.437473 0.437473 0.436417 0.436417 0.435296 0.435296 0.434111 0.434111 0.432861 0.432861 0.431546 0.431546 0.430166 0.430166 0.428722 0.428722 0.427214 0.427214 0.425641 0.425641 0.424004 0.424004 0.422302 0.422302 0.420537 0.420537 0.418709 0.418709 0.416817 0.416817 0.414863 0.414863 0.412846 0.412846 0.410766 0.410766 0.408625 0.408625 0.406423 0.406423 0.40416 0.40416 0.401836 0.401836 0.399453 0.399453 0.39701 0.39701 0.394509 0.394509 0.39195 0.39195 0.389334 0.389334 0.386661 0.386661 0.383933 0.383933 0.381149 0.381149 0.378312 0.378312 0.375421 0.375421 0.372478 0.372478 0.369484 0.369484 0.366439 0.366439 0.363345 0.363345 0.360202 0.360202 0.357013 0.357013 0.353777 0.353777 0.350497 0.350497 0.347173 0.347173 0.343807 0.343807 0.3404 0.3404 0.336952 0.336952 0.333467 0.333467 0.329945 0.329945 0.326387 0.326387 0.322795 0.322795 0.319171 0.319171 0.315516 0.315516 0.311832 0.311832 0.30812 0.30812 0.304383 0.304383 0.300621 0.300621 0.296836 0.296836 0.293031 0.293031 0.289207 0.289207 0.285366 0.285366 0.28151 0.28151 0.277641 0.277641 0.273761 0.273761 0.269871 0.269871 0.265974 0.265974 0.262072 0.262072 0.258167 0.258167 0.254261 0.254261 0.250356 0.250356 0.246454 0.246454 0.242558 0.242558 0.238669 0.238669 0.23479 0.23479 0.230924 0.230924 0.227072 0.227072 0.223236 0.223236 0.21942 0.21942 0.215624 0.215624 0.211853 0.211853 0.208107 
SCALARS solution_2 double 1
LOOKUP_TABLE default
0.023514 0.0235175 0.0235175 0.0235278 0.0235278 0.0235441 0.0235441 0.023566 0.023566 0.0235929 0.0235929 0.0236243 0.0236243 0.0236598 0.0236598 0.023699 0.023699 0.0237415 0.0237415 0.023787 0.023787 0.0238352 0.0238352 0.0238859 0.0238859 0.0239387 0.0239387 0.0239935 0.0239935 0.02405 0.02405 0.0241081 0.0241081 0.0241676 0.0241676 0.0242282 0.0242282 0.02429 0.02429 0.0243527 0.0243527 0.0244162 0.0244162 0.0244804 0.0244804 0.0245453 0.0245453 0.0246106 0.0246106 0.0246763 0.0246763 0.0247424 0.0247424 0.0248087 0.0248087 0.0248752 0.0248752 0.0249418 0.0249418 0.0250085 0.0250085 0.0250751 0.0250751 0.0251417 0.0251417 0.0252081 0.0252081 0.0252743 0.0252743 0.0253403 0.0253403 0.025406 0.025406 0.0254713 0.0254713 0.0255362 0.0255362 0.0256007 0.0256007 0.0256647 0.0256647 0.0257282 0.0257282 0.0257911 0.0257911 0.0258533 0.0258533 0.0259149 0.0259149 0.0259757 0.0259757 0.0260357 0.0260357 0.0260949 0.0260949 0.0261533 0.0261533 0.0262106 0.0262106 0.026267 0.026267 0.0263224 0.0263224 0.0263766 0.0263766 0.0264297 0.0264297 0.0264816 0.0264816 0.0265322 0.0265322 0.0265815 0.0265815 0.0266293 0.0266293 0.0266757 0.0266757 0.0267205 0.0267205 0.0267638 0.0267638 0.0268053 0.0268053 0.0268451 0.0268451 0.0268831 0.0268831 0.0269192 0.0269192 0.0269532 0.0269532 0.0269852 0.0269852 0.0270151 0.0270151 0.0270427 0.0270427 0.027068 0.027068 0.0270909 0.0270909 0.0271112 0.0271112 0.0271289 0.0271289 0.0271439 0.0271439 0.0271561 0.0271561 0.0271654 0.0271654 0.0271717 0.0271717 0.0271748 0.0271748 0.0271747 0.0271747 0.0271712 0.0271712 0.0271642 0.0271642 0.0271536 0.0271536 0.0271393 0.0271393 0.0271212 0.0271212 0.0270991 0.0270991 0.0270728 0.0270728 0.0270424 0.0270424 0.0270075 0.0270075 0.0269682 0.0269682 0.0269242 0.0269242 0.0268754 0.0268754 0.0268217 0.0268217 0.0267629 0.0267629 0.0266988 0.0266988 0.0266294 0.0266294 0.0265545 0.0265545 0.0264738 0.0264738 0.0263873 0.0263873 0.0262948 0.0262948 0.0261961 0.0261961 0.0260911 0.0260911 0.0259795 0.0259795 0.0258613 0.0258613 0.0257363 0.0257363 0.0256043 0.0256043 0.0254651 0.0254651 0.0253185 0.0253185 0.0251644 0.0251644 0.0250026 0.0250026 0.024833 0.024833 0.0246553 0.0246553 0.0244694 0.0244694 0.0242751 0.0242751 0.0240722 0.0240722 0.0238606 0.0238606 0.0236401 0.0236401 0.0234104 0.0234104 0.0231715 0.0231715 0.0229232 0.0229232 0.0226653 0.0226653 0.0223975 0.0223975 0.0221198 0.0221198 0.021832 0.021832 0.0215339 0.0215339 0.0212254 0.0212254 0.0209063 0.0209063 0.0205763 0.0205763 0.0202355 0.0202355 0.0198836 0.0198836 0.0195205 0.0195205 0.0191461 0.0191461 0.0187601 0.0187601 0.0183625 0.0183625 0.0179531 0.0179531 0.0175319 0.0175319 0.0170987 0.0170987 0.0166533 0.0166533 0.0161957 0.0161957 0.0157258 0.0157258 0.0152435 0.0152435 0.0147487 0.0147487 0.0142413 0.0142413 0.0137212 0.0137212 0.0131884 0.0131884 0.0126429 0.0126429 0.0120845 0.0120845 0.0115133 0.0115133 0.0109293 0.0109293 0.0103323 0.0103323 0.00972243 0.00972243 0.00909966 0.00909966 0.00846402 0.00846402 0.00781552 0.00781552 0.00715421 0.00715421 0.00648013 0.00648013 0.00579335 0.00579335 0.00509394 0.00509394 0.00438199 0.00438199 0.00365761 0.00365761 0.00292089 0.00292089 0.00217199 0.00217199 0.00141102 0.00141102 0.000638162 0.000638162 -0.000146425 -0.000146425 -0.000942551 -0.000942551 -0.00175002 -0.00175002 -0.0025686 -0.0025686 -0.00339808 -0.00339808 -0.0042382 -0.0042382 -0.0050887 -0.0050887 -0.00594929 -0.00594929 -0.00681969 -0.00681969 -0.00769958 -0.00769958 -0.00858863 -0.00858863 -0.0094865 -0.0094865 -0.0103928 -0.0103928 -0.0113072 -0.0113072 -0.0122293 -0.0122293 -0.0131586 -0.0131586 -0.0140948 -0.0140948 -0.0150374 -0.0150374 -0.0159859 -0.0159859 -0.0169399 -0.0169399 -0.0178988 -0.0178988 -0.0188622 -0.0188622 -0.0198295 -0.0198295 -0.0208002 -0.0208002 -0.0217737 -0.0217737 -0.0227494 -0.0227494 -0.0237268 -0.0237268 -0.0247053 -0.0247053 -0.0256842 -0.0256842 -0.0266629 -0.0266629 -0.0276408 -0.0276408 -0.0286172 -0.0286172 -0.0295914 -0.0295914 -0.0305628 -0.0305628 -0.0315306 -0.0315306 -0.0324942 -0.0324942 -0.0334529 -0.0334529 -0.0344058 -0.0344058 -0.0353523 -0.0353523 -0.0362917 -0.0362917 -0.0372232 -0.0372232 -0.0381459 -0.0381459 -0.0390593 -0.0390593 -0.0399624 -0.0399624 -0.0408546 -0.0408546 -0.041735 -0.041735 -0.0426029 -0.0426029 -0.0434575 -0.0434575 -0.044298 -0.044298 -0.0451237 -0.0451237 -0.0459337 -0.0459337 -0.0467272 -0.0467272 -0.0475036 -0.0475036 -0.048262 -0.048262 -0.0490017 -0.0490017 -0.0497218 -0.0497218 -0.0504218 -0.0504218 -0.0511008 -0.0511008 -0.051758 -0.051758 -0.0523929 -0.0523929 -0.0530046 -0.0530046 -0.0535926 -0.0535926 -0.054156 -0.054156 -0.0546943 -0.0546943 -0.0552068 -0.0552068 -0.0556928 -0.0556928 -0.0561519 -0.0561519 -0.0565833 -0.0565833 -0.0569866 -0.0569866 -0.0573612 -0.0573612 -0.0577065 -0.0577065 -0.0580222 -0.0580222 -0.0583077 -0.0583077 -0.0585625 -0.0585625 -0.0587864 -0.0587864 -0.0589788 -0.0589788 -0.0591395 -0.0591395 -0.0592682 -0.0592682 -0.0593644 -0.0593644 -0.0594281 -0.0594281 -0.059459 -0.059459 -0.0594568 -0.0594568 -0.0594215 -0.0594215 -0.0593529 -0.0593529 -0.0592508 -0.0592508 -0.0591154 -0.0591154 -0.0589465 -0.0589465 -0.0587441 -0.0587441 -0.0585084 -0.0585084 -0.0582395 -0.0582395 -0.057938 -0.057938 -0.0576077 -0.0576077 -0.0572709 -0.0572709 -0.0570618 
SCALARS solution_3 double 1
LOOKUP_TABLE default