# vtk DataFile Version 3.0
#This file was generated by the deal.II library on 2021/7/20 at 14:05:44
ASCII
DATASET UNSTRUCTURED_GRID

POINTS 8192 double
0 0 0
0.000244141 0 0
0.000244141 0 0
0.000488281 0 0
0.000488281 0 0
0.000732422 0 0
0.000732422 0 0
0.000976562 0 0
0.000976562 0 0
0.0012207 0 0
0.0012207 0 0
0.00146484 0 0
0.00146484 0 0
0.00170898 0 0
0.00170898 0 0
0.00195312 0 0
0.00195312 0 0
0.00219727 0 0
0.00219727 0 0
0.00244141 0 0
0.00244141 0 0
0.00268555 0 0
0.00268555 0 0
0.00292969 0 0
0.00292969 0 0
0.00317383 0 0
0.00317383 0 0
0.00341797 0 0
0.00341797 0 0
0.00366211 0 0
0.00366211 0 0
0.00390625 0 0
0.00390625 0 0
0.00415039 0 0
0.00415039 0 0
0.00439453 0 0
0.00439453 0 0
0.00463867 0 0
0.00463867 0 0
0.00488281 0 0
0.00488281 0 0
0.00512695 0 0
0.00512695 0 0
0.00537109 0 0
0.00537109 0 0
0.00561523 0 0
0.00561523 0 0
0.00585938 0 0
0.00585938 0 0
0.00610352 0 0
0.00610352 0 0
0.00634766 0 0
0.00634766 0 0
0.0065918 0 0
0.0065918 0 0
0.00683594 0 0
0.00683594 0 0
0.00708008 0 0
0.00708008 0 0
0.00732422 0 0
0.00732422 0 0
0.00756836 0 0
0.00756836 0 0
0.0078125 0 0
0.0078125 0 0
0.00805664 0 0
0.00805664 0 0
0.00830078 0 0
0.00830078 0 0
0.00854492 0 0
0.00854492 0 0
0.00878906 0 0
0.00878906 0 0
0.0090332 0 0
0.0090332 0 0
0.00927734 0 0
0.00927734 0 0
0.00952148 0 0
0.00952148 0 0
0.00976562 0 0
0.00976562 0 0
0.0100098 0 0
0.0100098 0 0
0.0102539 0 0
0.0102539 0 0
0.010498 0 0
0.010498 0 0
0.0107422 0 0
0.0107422 0 0
0.0109863 0 0
0.0109863 0 0
0.0112305 0 0
0.0112305 0 0
0.0114746 0 0
0.0114746 0 0
0.0117188 0 0
0.0117188 0 0
0.0119629 0 0
0.0119629 0 0
0.012207 0 0
0.012207 0 0
0.0124512 0 0
0.0124512 0 0
0.0126953 0 0
0.0126953 0 0
0.0129395 0 0
0.0129395 0 0
0.0131836 0 0
0.0131836 0 0
0.0134277 0 0
0.0134277 0 0
0.0136719 0 0
0.0136719 0 0
0.013916 0 0
0.013916 0 0
0.0141602 0 0
0.0141602 0 0
0.0144043 0 0
0.0144043 0 0
0.0146484 0 0
0.0146484 0 0
0.0148926 0 0
0.0148926 0 0
0.0151367 0 0
0.0151367 0 0
0.0153809 0 0
0.0153809 0 0
0.015625 0 0
0.015625 0 0
0.0158691 0 0
0.0158691 0 0
0.0161133 0 0
0.0161133 0 0
0.0163574 0 0
0.0163574 0 0
0.0166016 0 0
0.0166016 0 0
0.0168457 0 0
0.0168457 0 0
0.0170898 0 0
0.0170898 0 0
0.017334 0 0
0.017334 0 0
0.0175781 0 0
0.0175781 0 0
0.0178223 0 0
0.0178223 0 0
0.0180664 0 0
0.0180664 0 0
0.0183105 0 0
0.0183105 0 0
0.0185547 0 0
0.0185547 0 0
0.0187988 0 0
0.0187988 0 0
0.019043 0 0
0.019043 0 0
0.0192871 0 0
0.0192871 0 0
0.0195312 0 0
0.0195312 0 0
0.0197754 0 0
0.0197754 0 0
0.0200195 0 0
0.0200195 0 0
0.0202637 0 0
0.0202637 0 0
0.0205078 0 0
0.0205078 0 0
0.020752 0 0
0.020752 0 0
0.0209961 0 0
0.0209961 0 0
0.0212402 0 0
0.0212402 0 0
0.0214844 0 0
0.0214844 0 0
0.0217285 0 0
0.0217285 0 0
0.0219727 0 0
0.0219727 0 0
0.0222168 0 0
0.0222168 0 0
0.0224609 0 0
0.0224609 0 0
0.0227051 0 0
0.0227051 0 0
0.0229492 0 0
0.0229492 0 0
0.0231934 0 0
0.0231934 0 0
0.0234375 0 0
0.0234375 0 0
0.0236816 0 0
0.0236816 0 0
0.0239258 0 0
0.0239258 0 0
0.0241699 0 0
0.0241699 0 0
0.0244141 0 0
0.0244141 0 0
0.0246582 0 0
0.0246582 0 0
0.0249023 0 0
0.0249023 0 0
0.0251465 0 0
0.0251465 0 0
0.0253906 0 0
0.0253906 0 0
0.0256348 0 0
0.0256348 0 0
0.0258789 0 0
0.0258789 0 0
0.026123 0 0
0.026123 0 0
0.0263672 0 0
0.0263672 0 0
0.0266113 0 0
0.0266113 0 0
0.0268555 0 0
0.0268555 0 0
0.0270996 0 0
0.0270996 0 0
0.0273438 0 0
0.0273438 0 0
0.0275879 0 0
0.0275879 0 0
0.027832 0 0
0.027832 0 0
0.0280762 0 0
0.0280762 0 0
0.0283203 0 0
0.0283203 0 0
0.0285645 0 0
0.0285645 0 0
0.0288086 0 0
0.0288086 0 0
0.0290527 0 0
0.0290527 0 0
0.0292969 0 0
0.0292969 0 0
0.029541 0 0
0.029541 0 0
0.0297852 0 0
0.0297852 0 0
0.0300293 0 0
0.0300293 0 0
0.0302734 0 0
0.0302734 0 0
0.0305176 0 0
0.0305176 0 0
0.0307617 0 0
0.0307617 0 0
0.0310059 0 0
0.0310059 0 0
0.03125 0 0
0.03125 0 0
0.0314941 0 0
0.0314941 0 0
0.0317383 0 0
0.0317383 0 0
0.0319824 0 0
0.0319824 0 0
0.0322266 0 0
0.0322266 0 0
0.0324707 0 0
0.0324707 0 0
0.0327148 0 0
0.0327148 0 0
0.032959 0 0
0.032959 0 0
0.0332031 0 0
0.0332031 0 0
0.0334473 0 0
0.0334473 0 0
0.0336914 0 0
0.0336914 0 0
0.0339355 0 0
0.0339355 0 0
0.0341797 0 0
0.0341797 0 0
0.0344238 0 0
0.0344238 0 0
0.034668 0 0
0.034668 0 0
0.0349121 0 0
0.0349121 0 0
0.0351562 0 0
0.0351562 0 0
0.0354004 0 0
0.0354004 0 0
0.0356445 0 0
0.0356445 0 0
0.0358887 0 0
0.0358887 0 0
0.0361328 0 0
0.0361328 0 0
0.036377 0 0
0.036377 0 0
0.0366211 0 0
0.0366211 0 0
0.0368652 0 0
0.0368652 0 0
0.0371094 0 0
0.0371094 0 0
0.0373535 0 0
0.0373535 0 0
0.0375977 0 0
0.0375977 0 0
0.0378418 0 0
0.0378418 0 0
0.0380859 0 0
0.0380859 0 0
0.0383301 0 0
0.0383301 0 0
0.0385742 0 0
0.0385742 0 0
0.0388184 0 0
0.0388184 0 0
0.0390625 0 0
0.0390625 0 0
0.0393066 0 0
0.0393066 0 0
0.0395508 0 0
0.0395508 0 0
0.0397949 0 0
0.0397949 0 0
0.0400391 0 0
0.0400391 0 0
0.0402832 0 0
0.0402832 0 0
0.0405273 0 0
0.0405273 0 0
0.0407715 0 0
0.0407715 0 0
0.0410156 0 0
0.0410156 0 0
0.0412598 0 0
0.0412598 0 0
0.0415039 0 0
0.0415039 0 0
0.041748 0 0
0.041748 0 0
0.0419922 0 0
0.0419922 0 0
0.0422363 0 0
0.0422363 0 0
0.0424805 0 0
0.0424805 0 0
0.0427246 0 0
0.0427246 0 0
0.0429688 0 0
0.0429688 0 0
0.0432129 0 0
0.0432129 0 0
0.043457 0 0
0.043457 0 0
0.0437012 0 0
0.0437012 0 0
0.0439453 0 0
0.0439453 0 0
0.0441895 0 0
0.0441895 0 0
0.0444336 0 0
0.0444336 0 0
0.0446777 0 0
0.0446777 0 0
0.0449219 0 0
0.0449219 0 0
0.045166 0 0
0.045166 0 0
0.0454102 0 0
0.0454102 0 0
0.0456543 0 0
0.0456543 0 0
0.0458984 0 0
0.0458984 0 0
0.0461426 0 0
0.0461426 0 0
0.0463867 0 0
0.0463867 0 0
0.0466309 0 0
0.0466309 0 0
0.046875 0 0
0.046875 0 0
0.0471191 0 0
0.0471191 0 0
0.0473633 0 0
0.0473633 0 0
0.0476074 0 0
0.0476074 0 0
0.0478516 0 0
0.0478516 0 0
0.0480957 0 0
0.0480957 0 0
0.0483398 0 0
0.0483398 0 0
0.048584 0 0
0.048584 0 0
0.0488281 0 0
0.0488281 0 0
0.0490723 0 0
0.0490723 0 0
0.0493164 0 0
0.0493164 0 0
0.0495605 0 0
0.0495605 0 0
0.0498047 0 0
0.0498047 0 0
0.0500488 0 0
0.0500488 0 0
0.050293 0 0
0.050293 0 0
0.0505371 0 0
0.0505371 0 0
0.0507812 0 0
0.0507812 0 0
0.0510254 0 0
0.0510254 0 0
0.0512695 0 0
0.0512695 0 0
0.0515137 0 0
0.0515137 0 0
0.0517578 0 0
0.0517578 0 0
0.052002 0 0
0.052002 0 0
0.0522461 0 0
0.0522461 0 0
0.0524902 0 0
0.0524902 0 0
0.0527344 0 0
0.0527344 0 0
0.0529785 0 0
0.0529785 0 0
0.0532227 0 0
0.0532227 0 0
0.0534668 0 0
0.0534668 0 0
0.0537109 0 0
0.0537109 0 0
0.0539551 0 0
0.0539551 0 0
0.0541992 0 0
0.0541992 0 0
0.0544434 0 0
0.0544434 0 0
0.0546875 0 0
0.0546875 0 0
0.0549316 0 0
0.0549316 0 0
0.0551758 0 0
0.0551758 0 0
0.0554199 0 0
0.0554199 0 0
0.0556641 0 0
0.0556641 0 0
0.0559082 0 0
0.0559082 0 0
0.0561523 0 0
0.0561523 0 0
0.0563965 0 0
0.0563965 0 0
0.0566406 0 0
0.0566406 0 0
0.0568848 0 0
0.0568848 0 0
0.0571289 0 0
0.0571289 0 0
0.057373 0 0
0.057373 0 0
0.0576172 0 0
0.0576172 0 0
0.0578613 0 0
0.0578613 0 0
0.0581055 0 0
0.0581055 0 0
0.0583496 0 0
0.0583496 0 0
0.0585938 0 0
0.0585938 0 0
0.0588379 0 0
0.0588379 0 0
0.059082 0 0
0.059082 0 0
0.0593262 0 0
0.0593262 0 0
0.0595703 0 0
0.0595703 0 0
0.0598145 0 0
0.0598145 0 0
0.0600586 0 0
0.0600586 0 0
0.0603027 0 0
0.0603027 0 0
0.0605469 0 0
0.0605469 0 0
0.060791 0 0
0.060791 0 0
0.0610352 0 0
0.0610352 0 0
0.0612793 0 0
0.0612793 0 0
0.0615234 0 0
0.0615234 0 0
0.0617676 0 0
0.0617676 0 0
0.0620117 0 0
0.0620117 0 0
0.0622559 0 0
0.0622559 0 0
0.0625 0 0
0.0625 0 0
0.0627441 0 0
0.0627441 0 0
0.0629883 0 0
0.0629883 0 0
0.0632324 0 0
0.0632324 0 0
0.0634766 0 0
0.0634766 0 0
0.0637207 0 0
0.0637207 0 0
0.0639648 0 0
0.0639648 0 0
0.064209 0 0
0.064209 0 0
0.0644531 0 0
0.0644531 0 0
0.0646973 0 0
0.0646973 0 0
0.0649414 0 0
0.0649414 0 0
0.0651855 0 0
0.0651855 0 0
0.0654297 0 0
0.0654297 0 0
0.0656738 0 0
0.0656738 0 0
0.065918 0 0
0.065918 0 0
0.0661621 0 0
0.0661621 0 0
0.0664062 0 0
0.0664062 0 0
0.0666504 0 0
0.0666504 0 0
0.0668945 0 0
0.0668945 0 0
0.0671387 0 0
0.0671387 0 0
0.0673828 0 0
0.0673828 0 0
0.067627 0 0
0.067627 0 0
0.0678711 0 0
0.0678711 0 0
0.0681152 0 0
0.0681152 0 0
0.0683594 0 0
0.0683594 0 0
0.0686035 0 0
0.0686035 0 0
0.0688477 0 0
0.0688477 0 0
0.0690918 0 0
0.0690918 0 0
0.0693359 0 0
0.0693359 0 0
0.0695801 0 0
0.0695801 0 0
0.0698242 0 0
0.0698242 0 0
0.0700684 0 0
0.0700684 0 0
0.0703125 0 0
0.0703125 0 0
0.0705566 0 0
0.0705566 0 0
0.0708008 0 0
0.0708008 0 0
0.0710449 0 0
0.0710449 0 0
0.0712891 0 0
0.0712891 0 0
0.0715332 0 0
0.0715332 0 0
0.0717773 0 0
0.0717773 0 0
0.0720215 0 0
0.0720215 0 0
0.0722656 0 0
0.0722656 0 0
0.0725098 0 0
0.0725098 0 0
0.0727539 0 0
0.0727539 0 0
0.072998 0 0
0.072998 0 0
0.0732422 0 0
0.0732422 0 0
0.0734863 0 0
0.0734863 0 0
0.0737305 0 0
0.0737305 0 0
0.0739746 0 0
0.0739746 0 0
0.0742188 0 0
0.0742188 0 0
0.0744629 0 0
0.0744629 0 0
0.074707 0 0
0.074707 0 0
0.0749512 0 0
0.0749512 0 0
0.0751953 0 0
0.0751953 0 0
0.0754395 0 0
0.0754395 0 0
0.0756836 0 0
0.0756836 0 0
0.0759277 0 0
0.0759277 0 0
0.0761719 0 0
0.0761719 0 0
0.076416 0 0
0.076416 0 0
0.0766602 0 0
0.0766602 0 0
0.0769043 0 0
0.0769043 0 0
0.0771484 0 0
0.0771484 0 0
0.0773926 0 0
0.0773926 0 0
0.0776367 0 0
0.0776367 0 0
0.0778809 0 0
0.0778809 0 0
0.078125 0 0
0.078125 0 0
0.0783691 0 0
0.0783691 0 0
0.0786133 0 0
0.0786133 0 0
0.0788574 0 0
0.0788574 0 0
0.0791016 0 0
0.0791016 0 0
0.0793457 0 0
0.0793457 0 0
0.0795898 0 0
0.0795898 0 0
0.079834 0 0
0.079834 0 0
0.0800781 0 0
0.0800781 0 0
0.0803223 0 0
0.0803223 0 0
0.0805664 0 0
0.0805664 0 0
0.0808105 0 0
0.0808105 0 0
0.0810547 0 0
0.0810547 0 0
0.0812988 0 0
0.0812988 0 0
0.081543 0 0
0.081543 0 0
0.0817871 0 0
0.0817871 0 0
0.0820312 0 0
0.0820312 0 0
0.0822754 0 0
0.0822754 0 0
0.0825195 0 0
0.0825195 0 0
0.0827637 0 0
0.0827637 0 0
0.0830078 0 0
0.0830078 0 0
0.083252 0 0
0.083252 0 0
0.0834961 0 0
0.0834961 0 0
0.0837402 0 0
0.0837402 0 0
0.0839844 0 0
0.0839844 0 0
0.0842285 0 0
0.0842285 0 0
0.0844727 0 0
0.0844727 0 0
0.0847168 0 0
0.0847168 0 0
0.0849609 0 0
0.0849609 0 0
0.0852051 0 0
0.0852051 0 0
0.0854492 0 0
0.0854492 0 0
0.0856934 0 0
0.0856934 0 0
[...]
POINT_DATA 8192
SCALARS solution_0 double 1
LOOKUP_TABLE default
0.1 0.100176 0.100176 0.100351 0.100351 0.100527 0.100527 0.100703 0.100703 0.100879 0.100879 0.101054 0.101054 0.10123 0.10123 0.101406 0.101406 0.101582 0.101582 0.101757 0.101757 0.101933 0.101933 0.102109 0.102109 0.102285 0.102285 0.10246 0.10246 0.102636 0.102636 0.102812 0.102812 0.102988 0.102988 0.103163 0.103163 0.103339 0.103339 0.103515 0.103515 0.10369 0.10369 0.103866 0.103866 0.104042 0.104042 0.104218 0.104218 0.104393 0.104393 0.104569 0.104569 0.104745 0.104745 0.10492 0.10492 0.105096 0.105096 0.105272 0.105272 0.105448 0.105448 0.105623 0.105623 0.105799 0.105799 0.105975 0.105975 0.10615 0.10615 0.106326 0.106326 0.106502 0.106502 0.106678 0.106678 0.106853 0.106853 0.107029 0.107029 0.107205 0.107205 0.10738 0.10738 0.107556 0.107556 0.107732 0.107732 0.107907 0.107907 0.108083 0.108083 0.108259 0.108259 0.108434 0.108434 0.10861 0.10861 0.108786 0.108786 0.108961 0.108961 0.109137 0.109137 0.109313 0.109313 0.109488 0.109488 0.109664 0.109664 0.109839 0.109839 0.110015 0.110015 0.110191 0.110191 0.110366 0.110366 0.110542 0.110542 0.110717 0.110717 0.110893 0.110893 0.111069 0.111069 0.111244 0.111244 0.11142 0.11142 0.111595 0.111595 0.111771 0.111771 0.111947 0.111947 0.112122 0.112122 0.112298 0.112298 0.112473 0.112473 0.112649 0.112649 0.112824 0.112824 0.113 0.113 0.113176 0.113176 0.113351 0.113351 0.113527 0.113527 0.113702 0.113702 0.113878 0.113878 0.114053 0.114053 0.114229 0.114229 0.114404 0.114404 0.11458 0.11458 0.114755 0.114755 0.114931 0.114931 0.115106 0.115106 0.115282 0.115282 0.115457 0.115457 0.115632 0.115632 0.115808 0.115808 0.115983 0.115983 0.116159 0.116159 0.116334 0.116334 0.11651 0.11651 0.116685 0.116685 0.116861 0.116861 0.117036 0.117036 0.117211 0.117211 0.117387 0.117387 0.117562 0.117562 0.117737 0.117737 0.117913 0.117913 0.118088 0.118088 0.118264 0.118264 0.118439 0.118439 0.118614 0.118614 0.11879 0.11879 0.118965 0.118965 0.11914 0.11914 0.119315 0.119315 0.119491 0.119491 0.119666 0.119666 0.119841 0.119841 0.120017 0.120017 0.120192 0.120192 0.120367 0.120367 0.120542 0.120542 0.120718 0.120718 0.120893 0.120893 0.121068 0.121068 0.121243 0.121243 0.121419 0.121419 0.121594 0.121594 0.121769 0.121769 0.121944 0.121944 0.122119 0.122119 0.122294 0.122294 0.12247 0.12247 0.122645 0.122645 0.12282 0.12282 0.122995 0.122995 0.12317 0.12317 0.123345 0.123345 0.12352 0.12352 0.123695 0.123695 0.12387 0.12387 0.124046 0.124046 0.124221 0.124221 0.124396 0.124396 0.124571 0.124571 0.124746 0.124746 0.124921 0.124921 0.125096 0.125096 0.125271 0.125271 0.125446 0.125446 0.125621 0.125621 0.125796 0.125796 0.125971 0.125971 0.126146 0.126146 0.126321 0.126321 0.126495 0.126495 0.12667 0.12667 0.126845 0.126845 0.12702 0.12702 0.127195 0.127195 0.12737 0.12737 0.127545 0.127545 0.12772 0.12772 0.127894 0.127894 0.128069 0.128069 0.128244 0.128244 0.128419 0.128419 0.128594 0.128594 0.128768 0.128768 0.128943 0.128943 0.129118 0.129118 0.129293 0.129293 0.129467 0.129467 0.129642 0.129642 0.129817 0.129817 0.129991 0.129991 0.130166 0.130166 0.130341 0.130341 0.130515 0.130515 0.13069 0.13069 0.130865 0.130865 0.131039 0.131039 0.131214 0.131214 0.131389 0.131389 0.131563 0.131563 0.131738 0.131738 0.131912 0.131912 0.132087 0.132087 0.132261 0.132261 0.132436 0.132436 0.13261 0.13261 0.132785 0.132785 0.132959 0.132959 0.133134 0.133134 0.133308 0.133308 0.133483 0.133483 0.133657 0.133657 0.133831 0.133831 0.134006 0.134006 0.13418 0.13418 0.134355 0.134355 0.134529 0.134529 0.134703 0.134703 0.134878 0.134878 0.135052 0.135052 0.135226 0.135226 0.1354 0.1354 0.135575 0.135575 0.135749 0.135749 0.135923 0.135923 0.136097 0.136097 0.136272 0.136272 0.136446 0.136446 0.13662 0.13662 0.136794 0.136794 0.136968 0.136968 0.137142 0.137142 0.137316 0.137316 0.137491 0.137491 0.137665 0.137665 0.137839 0.137839 0.138013 0.138013 0.138187 0.138187 0.138361 0.138361 0.138535 0.138535 0.138709 0.138709 0.138883 0.138883 0.139057 0.139057 0.139231 0.139231 0.139405 0.139405 0.139578 0.139578 0.139752 0.139752 0.139926 0.139926 0.1401 0.1401 0.140274 0.140274 0.140448 0.140448 0.140622 0.140622 0.140795 0.140795 0.140969 0.140969 0.141143 0.141143 0.141317 0.141317 0.14149 0.14149 0.141664 0.141664 0.141838 0.141838 0.142011 0.142011 0.142185 0.142185 0.142359 0.142359 0.142532 0.142532 0.142706 0.142706 0.142879 0.142879 0.143053 0.143053 0.143227 0.143227 0.1434 0.1434 0.143574 0.143574 0.143747 0.143747 0.143921 0.143921 0.144094 0.144094 0.144268 0.144268 0.144441 0.144441 0.144614 0.144614 0.144788 0.144788 0.144961 0.144961 0.145134 0.145134 0.145308 0.145308 0.145481 0.145481 0.145654 0.145654 0.145828 0.145828 0.146001 0.146001 0.146174 0.146174 0.146347 0.146347 0.146521 0.146521 0.146694 0.146694 0.146867 0.146867 0.14704 0.14704 0.147213 0.147213 0.147386 0.147386 0.147559 0.147559 0.147732 0.147732 0.147905 0.147905 0.148078 0.148078 0.148251 0.148251 0.148424 0.148424 0.148597 0.148597 0.14877 0.14877 0.148943 0.148943 0.149116 0.149116 0.149289 0.149289 0.149462 0.149462 0.149635 0.149635 0.149808 0.149808 0.14998 0.14998 0.150153 0.150153 0.150326 0.150326 0.150499 0.150499 0.150671 0.150671 0.150844 0.150844 0.151017 0.151017 0.151189 0.151189 0.151362 0.151362 0.151535 0.151535 0.151707 0.151707 0.15188 0.15188 0.152052 0.152052 0.152225 0.152225 0.152397 0.152397 0.15257 0.15257 0.152742 0.152742 0.152915 0.152915 0.153087 0.153087 0.15326 0.15326 0.153432 0.153432 0.153604 0.153604 0.153777 0.153777 0.153949 0.153949 0.154121 0.154121 0.154294 0.154294 0.154466 0.154466 0.154638 0.154638 0.15481 0.15481 0.154983 0.154983 0.155155 0.155155 0.155327 0.155327 0.155499 0.155499 0.155671 0.155671 0.155843 0.155843 0.156015 0.156015 0.156187 0.156187 0.156359 0.156359 0.156531 0.156531 0.156703 0.156703 0.156875 0.156875 0.157047 0.157047 0.157219 0.157219 0.157391 0.157391 0.157562 0.157562 0.157734 0.157734 0.157906 0.157906 0.158078 0.158078 0.15825 0.15825 0.158421 0.158421 0.158593 0.158593 0.158765 0.158765 0.158936 0.158936 0.159108 0.159108 0.159279 0.159279 0.159451 0.159451 0.159623 0.159623 0.159794 0.159794 0.159966 0.159966 0.160137 0.160137 0.160309 0.160309 0.16048 0.16048 0.160651 0.160651 0.160823 0.160823 0.160994 0.160994 0.161165 0.161165 0.161337 0.161337 0.161508 0.161508 0.161679 0.161679 0.16185 0.16185 0.162022 0.162022 0.162193 0.162193 0.162364 0.162364 0.162535 0.162535 0.162706 0.162706 0.162877 0.162877 0.163048 0.163048 0.163219 0.163219 0.16339 0.16339 0.163561 0.163561 0.163732 0.163732 0.163903 0.163903 0.164074 0.164074 0.164245 0.164245 0.164416 0.164416 0.164586 0.164586 0.164757 0.164757 0.164928 0.164928 0.165099 0.165099 0.165269 0.165269 0.16544 0.16544 0.165611 0.165611 0.165781 0.165781 0.165952 0.165952 0.166123 0.166123 0.166293 0.166293 0.166464 0.166464 0.166634 0.166634 0.166805 0.166805 0.166975 0.166975 0.167145 0.167145 0.167316 0.167316 0.167486 0.167486 0.167656 0.167656 0.167827 0.167827 0.167997 0.167997 0.168167 0.168167 0.168337 0.168337 0.168508 0.168508 0.168678 0.168678 0.168848 0.168848 0.169018 0.169018 0.169188 0.169188 0.169358 0.169358 0.169528 0.169528 0.169698 0.169698 0.169868 0.169868 0.170038 0.170038 0.170208 0.170208 0.170378 0.170378 0.170548 0.170548 0.170717 0.170717 0.170887 0.170887 0.171057 0.171057 0.171227 0.171227 0.171396 0.171396 0.171566 0.171566 0.171736 0.171736 0.171905 0.171905 0.172075 0.172075 0.172244 0.172244 0.172414 0.172414 0.172583 0.172583 0.172753 0.172753 0.172922 0.172922 0.173092 0.173092 0.173261 0.173261 0.17343 0.17343 0.1736 0.1736 0.173769 0.173769 0.173938 0.173938 0.174108 0.174108 0.174277 0.174277 0.174446 0.174446 0.174615 0.174615 0.174784 0.174784 0.174953 0.174953 0.175122 0.175122 0.175291 0.175291 0.17546 0.17546 0.175629 0.175629 0.175798 0.175798 0.175967 0.175967 0.176136 0.176136 0.176305 0.176305 0.176473 0.176473 0.176642 0.176642 0.176811 0.176811 0.17698 0.17698 0.177148 0.177148 0.177317 0.177317 0.177486 0.177486 0.177654 0.177654 0.177823 0.177823 0.177991 0.177991 0.17816 0.17816 0.178328 0.178328 0.178496 0.178496 0.178665 0.178665 0.178833 0.178833 0.179002 0.179002 0.17917 0.17917 0.179338 0.179338 0.179506 0.179506 0.179674 0.179674 0.179843 0.179843 0.180011 0.180011 0.180179 0.180179 0.180347 0.180347 0.180515 0.180515 0.180683 0.180683 0.180851 0.180851 0.181019 0.181019 0.181187 0.181187 0.181355 0.181355 0.181522 0.181522 0.18169 0.18169 0.181858 0.181858 0.182026 0.182026 0.182193 0.182193 0.182361 0.182361 0.182529 0.182529 0.182696 0.182696 0.182864 0.182864 0.183031 0.183031 0.183199 0.183199 0.183366 0.183366 0.183534 0.183534 0.183701 0.183701 0.183868 0.183868 0.184036 0.184036 0.184203 0.184203 0.18437 0.18437 0.184537 0.184537 0.184705 0.184705 0.184872 0.184872 0.185039 0.185039 0.185206 0.185206 0.185373 0.185373 0.18554 0.18554 0.185707 0.185707 0.185874 0.185874 0.186041 0.186041 0.186208 0.186208 0.186375 0.186375 0.186541 0.186541 0.186708 0.186708 0.186875 0.186875 0.187042 0.187042 0.187208 0.187208 0.187375 0.187375 0.187541 0.187541 0.187708 0.187708 0.187874 0.187874 0.188041 0.188041 0.188207 0.188207 0.188374 0.188374 0.18854 0.18854 0.188707 0.188707 0.188873 0.188873 0.189039 0.189039 0.189205 0.189205 0.189371 0.189371 0.189538 0.189538 0.189704 0.189704 0.18987 0.18987 0.190036 0.190036 0.190202 0.190202 0.190368 0.190368 0.190534 0.190534 0.1907 0.1907 0.190866 0.190866 0.191031 0.191031 0.191197 0.191197 0.191363 0.191363 0.191529 0.191529 0.191694 0.191694 0.19186 0.19186 0.192026 0.192026 0.192191 0.192191 0.192357 0.192357 0.192522 0.192522 0.192688 0.192688 0.192853 0.192853 0.193018 0.193018 0.193184 0.193184 0.193349 0.193349 0.193514 0.193514 0.193679 0.193679 0.193845 0.193845 0.19401 0.19401 0.194175 0.194175 0.19434 0.19434 0.194505 0.194505 0.19467 0.19467 0.194835 0.194835 0.195 0.195 0.195165 0.195165 0.19533 0.19533 0.195494 0.195494 0.195659 0.195659 0.195824 0.195824 0.195989 0.195989 0.196153 0.196153 0.196318 0.196318 0.196482 0.196482 0.196647 0.196647 0.196811 0.196811 0.196976 0.196976 0.19714 0.19714 0.197305 0.197305 0.197469 0.197469 0.197633 0.197633 0.197798 0.197798 0.197962 0.197962 0.198126 0.198126 0.19829 0.19829 0.198454 0.198454 0.198618 0.198618 0.198782 0.198782 0.198946 0.198946 0.19911 0.19911 0.199274 0.199274 0.199438 0.199438 0.199602 0.199602 0.199766 0.199766 0.199929 0.199929 0.200093 0.200093 0.200257 0.200257 0.20042 0.20042 0.200584 0.200584 0.200747 0.200747 0.200911 0.200911 0.201074 0.201074 0.201238 0.201238 0.201401 0.201401 0.201564 0.201564 0.201728 0.201728 0.201891 0.201891 0.202054 0.202054 0.202217 0.202217 0.20238 0.20238 0.202543 0.202543 0.202706 0.202706 0.202869 0.202869 0.203032 0.203032 0.203195 0.203195 0.203358 0.203358 0.203521 0.203521 0.203684 0.203684 0.203847 0.203847 0.204009 0.204009 0.204172 0.204172 0.204335 0.204335 0.204497 0.204497 0.20466 0.20466 0.204822 0.204822 0.204985 0.204985 0.205147 0.205147 0.205309 0.205309 0.205472 0.205472 0.205634 0.205634 0.205796 0.205796 0.205958 0.205958 0.206121 0.206121 0.206283 0.206283 0.206445 0.206445 0.206607 0.206607 0.206769 0.206769 0.206931 0.206931 0.207093 0.207093 0.207254 0.207254 0.207416 0.207416 0.207578 0.207578 0.20774 0.20774 0.207901 0.207901 0.208063 0.208063 0.208225 0.208225 0.208386 0.208386 0.208548 0.208548 0.208709 0.208709 0.208871 0.208871 0.209032 0.209032 0.209193 0.209193 0.209355 0.209355 0.209516 0.209516 0.209677 0.209677 0.209838 0.209838 0.209999 0.209999 0.21016 0.21016 0.210321 0.210321 0.210482 0.210482 0.210643 0.210643 0.210804 0.210804 0.210965 0.210965 0.211126 0.211126 0.211287 0.211287 0.211447 0.211447 0.211608 0.211608 0.211769 0.211769 0.211929 0.211929 0.21209 0.21209 0.21225 0.21225 0.212411 0.212411 0.212571 0.212571 0.212731 0.212731 0.212892 0.212892 0.213052 0.213052 0.213212 0.213212 0.213372 0.213372 0.213532 0.213532 0.213692 0.213692 0.213852 0.213852 0.214012 0.214012 0.214172 0.214172 0.214332 0.214332 0.214492 0.214492 0.214652 0.214652 0.214812 0.214812 0.214971 0.214971 0.215131 0.215131 0.215291 0.215291 0.21545 0.21545 0.21561 0.21561 0.215769 0.215769 0.215929 0.215929 0.216088 0.216088 0.216247 0.216247 0.216407 0.216407 0.216566 0.216566 0.216725 0.216725 0.216884 0.216884 0.217043 0.217043 0.217202 0.217202 0.217361 0.217361 0.21752 0.21752 0.217679 0.217679 0.217838 0.217838 0.217997 0.217997 0.218156 0.218156 0.218314 0.218314 0.218473 0.218473 0.218632 0.218632 0.21879 0.21879 0.218949 0.218949 0.219107 0.219107 0.219266 0.219266 0.219424 0.219424 0.219583 0.219583 0.219741 0.219741 0.219899 0.219899 0.220057 0.220057 0.220215 0.220215 0.220374 0.220374 0.220532 0.220532 0.22069 0.22069 0.220848 0.220848 0.221005 0.221005 0.221163 0.221163 0.221321 0.221321 0.221479 0.221479 0.221637 0.221637 0.221794 0.221794 0.221952 0.221952 0.222109 0.222109 0.222267 0.222267 0.222424 0.222424 0.222582 0.222582 0.222739 0.222739 0.222897 0.222897 0.223054 0.223054 0.223211 0.223211 0.223368 0.223368 0.223525 0.223525 0.223683 0.223683 0.22384 0.22384 0.223997 0.223997 0.224153 0.224153 0.22431 0.22431 0.224467 0.224467 0.224624 0.224624 0.224781 0.224781 0.224937 0.224937 0.225094 0.225094 0.225251 0.225251 0.225407 0.225407 0.225564 0.225564 0.22572 0.22572 0.225876 0.225876 0.226033 0.226033 0.226189 0.226189 0.226345 0.226345 0.226502 0.226502 0.226658 0.226658 0.226814 0.226814 0.22697 0.22697 0.227126 0.227126 0.227282 0.227282 0.227438 0.227438 0.227593 0.227593 0.227749 0.227749 0.227905 0.227905 0.228061 0.228061 0.228216 0.228216 0.228372 0.228372 0.228527 0.228527 0.228683 0.228683 0.228838 0.228838 0.228994 0.228994 0.229149 0.229149 0.229304 0.229304 0.229459 0.229459 0.229615 0.229615 0.22977 0.22977 0.229925 0.229925 0.23008 0.23008 0.230235 0.230235 0.23039 0.23039 0.230545 0.230545 0.230699 0.230699 0.230854 0.230854 0.231009 0.231009 0.231163 0.231163 0.231318 0.231318 0.231473 0.231473 0.231627 0.231627 0.231782 0.231782 0.231936 0.231936 0.23209 0.23209 0.232245 0.232245 0.232399 0.232399 0.232553 0.232553 0.232707 0.232707 0.232861 0.232861 0.233015 0.233015 0.233169 0.233169 0.233323 0.233323 0.233477 0.233477 0.233631 0.233631 0.233785 0.233785 0.233938 0.233938 0.234092 0.234092 0.234246 0.234246 0.234399 0.234399 0.234553 0.234553 0.234706 0.234706 0.234859 0.234859 0.235013 0.235013 0.235166 0.235166 0.235319 0.235319 0.235472 0.235472 0.235626 0.235626 0.235779 0.235779 0.235932 0.235932 0.236085 0.236085 0.236238 0.236238 0.23639 0.23639 0.236543 0.236543 0.236696 0.236696 0.236849 0.236849 0.237001 0.237001 0.237154 0.237154 0.237306 0.237306 0.237459 0.237459 0.237611 0.237611 0.237764 0.237764 0.237916 0.237916 0.238068 0.238068 0.23822 0.23822 0.238373 0.238373 0.238525 0.238525 0.238677 0.238677 0.238829 0.238829 0.238981 0.238981 0.239133 0.239133 0.239284 0.239284 0.239436 0.239436 0.239588 0.239588 0.23974 0.23974 0.239891 0.239891 0.240043 0.240043 0.240194 0.240194 0.240346 0.240346 0.240497 0.240497 0.240648 0.240648 0.2408 0.2408 0.240951 0.240951 0.241102 0.241102 0.241253 0.241253 0.241404 0.241404 0.241555 0.241555 0.241706 0.241706 0.241857 0.241857 0.242008 0.242008 0.242159 0.242159 0.242309 0.242309 0.24246 0.24246 0.242611 0.242611 0.242761 0.242761 0.242912 0.242912 0.243062 0.243062 0.243213 0.243213 0.243363 0.243363 0.243513 0.243513 0.243663 0.243663 0.243814 0.243814 0.243964 0.243964 0.244114 0.244114 0.244264 0.244264 0.244414 0.244414 0.244564 0.244564 0.244713 0.244713 0.244863 0.244863 0.245013 0.245013 0.245163 0.245163 0.245312 0.245312 0.245462 0.245462 0.245611 0.245611 0.245761 0.245761 0.24591 0.24591 0.246059 0.246059 0.246209 0.246209 0.246358 0.246358 0.246507 0.246507 0.246656 0.246656 0.246805 0.246805 0.246954 0.246954 0.247103 0.247103 0.247252 0.247252 0.247401 0.247401 0.247549 0.247549 0.247698 0.247698 0.247847 0.247847 0.247995 0.247995 0.248144 0.248144 0.248292 0.248292 0.248441 0.248441 0.248589 0.248589 0.248737 0.248737 0.248886 0.248886 0.249034 0.249034 0.249182 0.249182 0.24933 0.24933 0.249478 0.249478 0.249626 0.249626 0.249774 0.249774 0.249922 0.249922 0.250069 0.250069 0.250217 0.250217 0.250365 0.250365 0.250512 0.250512 0.25066 0.25066 0.250807 0.250807 0.250955 0.250955 0.251102 0.251102 0.251249 0.251249 0.251397 0.251397 0.251544 0.251544 0.251691 0.251691 0.251838 0.251838 0.251985 0.251985 0.252132 0.252132 0.252279 0.252279 0.252426 0.252426 0.252572 0.252572 0.252719 0.252719 0.252866 0.252866 0.253012 0.253012 0.253159 0.253159 0.253305 0.253305 0.253452 0.253452 0.253598 0.253598 0.253744 0.253744 0.253891 0.253891 0.254037 0.254037 0.254183 0.254183 0.254329 0.254329 0.254475 0.254475 0.254621 0.254621 0.254767 0.254767 0.254913 0.254913 0.255059 0.255059 0.255204 0.255204 0.25535 0.25535 0.255495 0.255495 0.255641 0.255641 0.255786 0.255786 0.255932 0.255932 0.256077 0.256077 0.256223 0.256223 0.256368 0.256368 0.256513 0.256513 0.256658 0.256658 0.256803 0.256803 0.256948 0.256948 0.257093 0.257093 0.257238 0.257238 0.257383 0.257383 0.257527 0.257527 0.257672 0.257672 0.257817 0.257817 0.257961 0.257961 0.258106 0.258106 0.25825 0.25825 0.258395 0.258395 0.258539 0.258539 0.258683 0.258683 0.258827 0.258827 0.258972 0.258972 0.259116 0.259116 0.25926 0.25926 0.259404 0.259404 0.259548 0.259548 0.259691 0.259691 0.259835 0.259835 0.259979 0.259979 0.260123 0.260123 0.260266 0.260266 0.26041 0.26041 0.260553 0.260553 0.260697 0.260697 0.26084 0.26084 0.260983 0.260983 0.261126 0.261126 0.26127 0.26127 0.261413 0.261413 0.261556 0.261556 0.261699 0.261699 0.261842 0.261842 0.261985 0.261985 0.262127 0.262127 0.26227 0.26227 0.262413 0.262413 0.262555 0.262555 0.262698 0.262698 0.26284 0.26284 0.262983 0.262983 0.263125 0.263125 0.263268 0.263268 0.26341 0.26341 0.263552 0.263552 0.263694 0.263694 0.263836 0.263836 0.263978 0.263978 0.26412 0.26412 0.264262 0.264262 0.264404 0.264404 0.264546 0.264546 0.264687 0.264687 0.264829 0.264829 0.26497 0.26497 0.265112 0.265112 0.265253 0.265253 0.265395 0.265395 0.265536 0.265536 0.265677 0.265677 0.265818 0.265818 0.26596 0.26596 0.266101 0.266101 0.266242 0.266242 0.266383 0.266383 0.266523 0.266523 0.266664 0.266664 0.266805 0.266805 0.266946 0.266946 0.267086 0.267086 0.267227 0.267227 0.267367 0.267367 0.267508 0.267508 0.267648 0.267648 0.267789 0.267789 0.267929 0.267929 0.268069 0.268069 0.268209 0.268209 0.268349 0.268349 0.268489 0.268489 0.268629 0.268629 0.268769 0.268769 0.268909 0.268909 0.269048 0.269048 0.269188 0.269188 0.269328 0.269328 0.269467 0.269467 0.269607 0.269607 0.269746 0.269746 0.269886 0.269886 0.270025 0.270025 0.270164 0.270164 0.270303 0.270303 0.270442 0.270442 0.270581 0.270581 0.27072 0.27072 0.270859 0.270859 0.270998 0.270998 0.271137 0.271137 0.271276 0.271276 0.271414 0.271414 0.271553 0.271553 0.271692 0.271692 0.27183 0.27183 0.271968 0.271968 0.272107 0.272107 0.272245 0.272245 0.272383 0.272383 0.272521 0.272521 0.272659 0.272659 0.272797 0.272797 0.272935 0.272935 0.273073 0.273073 0.273211 0.273211 0.273349 0.273349 0.273487 0.273487 0.273624 0.273624 0.273762 0.273762 0.273899 0.273899 0.274037 0.274037 0.274174 0.274174 0.274311 0.274311 0.274449 0.274449 0.274586 0.274586 0.274723 0.274723 0.27486 0.27486 0.274997 0.274997 0.275134 0.275134 0.275271 0.275271 0.275408 0.275408 0.275544 0.275544 0.275681 0.275681 0.275818 0.275818 0.275954 0.275954 0.276091 0.276091 0.276227 0.276227 0.276363 0.276363 0.2765 0.2765 0.276636 0.276636 0.276772 0.276772 0.276908 0.276908 0.277044 0.277044 0.27718 0.27718 0.277316 0.277316 0.277452 0.277452 0.277588 0.277588 0.277723 0.277723 0.277859 0.277859 0.277994 0.277994 0.27813 0.27813 0.278265 0.278265 0.278401 0.278401 0.278536 0.278536 0.278671 0.278671 0.278806 0.278806 0.278942 0.278942 0.279077 0.279077 0.279212 0.279212 0.279346 0.279346 0.279481 0.279481 0.279616 0.279616 0.279751 0.279751 0.279885 0.279885 0.28002 0.28002 0.280155 0.280155 0.280289 0.280289 0.280423 0.280423 0.280558 0.280558 0.280692 0.280692 0.280826 0.28