# vtk DataFile Version 3.0
#This file was generated by the deal.II library on 2021/7/22 at 18:00:50
ASCII
DATASET UNSTRUCTURED_GRID

POINTS 128 double
0 0 0
0.015625 0 0
0.015625 0 0
0.03125 0 0
0.03125 0 0
0.046875 0 0
0.046875 0 0
0.0625 0 0
0.0625 0 0
0.078125 0 0
0.078125 0 0
0.09375 0 0
0.09375 0 0
0.109375 0 0
0.109375 0 0
0.125 0 0
0.125 0 0
0.140625 0 0
0.140625 0 0
0.15625 0 0
0.15625 0 0
0.171875 0 0
0.171875 0 0
0.1875 0 0
0.1875 0 0
0.203125 0 0
0.203125 0 0
0.21875 0 0
0.21875 0 0
0.234375 0 0
0.234375 0 0
0.25 0 0
0.25 0 0
0.265625 0 0
0.265625 0 0
0.28125 0 0
0.28125 0 0
0.296875 0 0
0.296875 0 0
0.3125 0 0
0.3125 0 0
0.328125 0 0
0.328125 0 0
0.34375 0 0
0.34375 0 0
0.359375 0 0
0.359375 0 0
0.375 0 0
0.375 0 0
0.390625 0 0
0.390625 0 0
0.40625 0 0
0.40625 0 0
0.421875 0 0
0.421875 0 0
0.4375 0 0
0.4375 0 0
0.453125 0 0
0.453125 0 0
0.46875 0 0
0.46875 0 0
0.484375 0 0
0.484375 0 0
0.5 0 0
0.5 0 0
0.515625 0 0
0.515625 0 0
0.53125 0 0
0.53125 0 0
0.546875 0 0
0.546875 0 0
0.5625 0 0
0.5625 0 0
0.578125 0 0
0.578125 0 0
0.59375 0 0
0.59375 0 0
0.609375 0 0
0.609375 0 0
0.625 0 0
0.625 0 0
0.640625 0 0
0.640625 0 0
0.65625 0 0
0.65625 0 0
0.671875 0 0
0.671875 0 0
0.6875 0 0
0.6875 0 0
0.703125 0 0
0.703125 0 0
0.71875 0 0
0.71875 0 0
0.734375 0 0
0.734375 0 0
0.75 0 0
0.75 0 0
0.765625 0 0
0.765625 0 0
0.78125 0 0
0.78125 0 0
0.796875 0 0
0.796875 0 0
0.8125 0 0
0.8125 0 0
0.828125 0 0
0.828125 0 0
0.84375 0 0
0.84375 0 0
0.859375 0 0
0.859375 0 0
0.875 0 0
0.875 0 0
0.890625 0 0
0.890625 0 0
0.90625 0 0
0.90625 0 0
0.921875 0 0
0.921875 0 0
0.9375 0 0
0.9375 0 0
0.953125 0 0
0.953125 0 0
0.96875 0 0
0.96875 0 0
0.984375 0 0
0.984375 0 0
1 0 0

CELLS 64 192
2	0	1
2	2	3
2	4	5
2	6	7
2	8	9
2	10	11
2	12	13
2	14	15
2	16	17
2	18	19
2	20	21
2	22	23
2	24	25
2	26	27
2	28	29
2	30	31
2	32	33
2	34	35
2	36	37
2	38	39
2	40	41
2	42	43
2	44	45
2	46	47
2	48	49
2	50	51
2	52	53
2	54	55
2	56	57
2	58	59
2	60	61
2	62	63
2	64	65
2	66	67
2	68	69
2	70	71
2	72	73
2	74	75
2	76	77
2	78	79
2	80	81
2	82	83
2	84	85
2	86	87
2	88	89
2	90	91
2	92	93
2	94	95
2	96	97
2	98	99
2	100	101
2	102	103
2	104	105
2	106	107
2	108	109
2	110	111
2	112	113
2	114	115
2	116	117
2	118	119
2	120	121
2	122	123
2	124	125
2	126	127

CELL_TYPES 64
 3 3 3 3 3 3 3 3 3 3 3 3 3 3 3 3 3 3 3 3 3 3 3 3 3 3 3 3 3 3 3 3 3 3 3 3 3 3 3 3 3 3 3 3 3 3 3 3 3 3 3 3 3 3 3 3 3 3 3 3 3 3 3 3
POINT_DATA 128
SCALARS solution_0 double 1
LOOKUP_TABLE default
0.0845406 0.0884375 0.0884375 0.092356 0.092356 0.0963157 0.0963157 0.100335 0.100335 0.104433 0.104433 0.108628 0.108628 0.112937 0.112937 0.117379 0.117379 0.121973 0.121973 0.126737 0.126737 0.13169 0.13169 0.136851 0.136851 0.142241 0.142241 0.147878 0.147878 0.153783 0.153783 0.159974 0.159974 0.166468 0.166468 0.173278 0.173278 0.180413 0.180413 0.187875 0.187875 0.19566 0.19566 0.203754 0.203754 0.212137 0.212137 0.220782 0.220782 0.229655 0.229655 0.238722 0.238722 0.247953 0.247953 0.257322 0.257322 0.266821 0.266821 0.276462 0.276462 0.286287 0.286287 0.296373 0.296373 0.306834 0.306834 0.31782 0.31782 0.329504 0.329504 0.342055 0.342055 0.355601 0.355601 0.370187 0.370187 0.385734 0.385734 0.402024 0.402024 0.41872 0.41872 0.435423 0.435423 0.451746 0.451746 0.467369 0.467369 0.48208 0.48208 0.49577 0.49577 0.508414 0.508414 0.520043 0.520043 0.530712 0.530712 0.540485 0.540485 0.549411 0.549411 0.557523 0.557523 0.564833 0.564833 0.571328 0.571328 0.576975 0.576975 0.581721 0.581721 0.5855 0.5855 0.588233 0.588233 0.589835 0.589835 0.590221 0.590221 0.589308 0.589308 0.587028 0.587028 0.583329 0.583329 0.578187 
SCALARS solution_1 double 1
LOOKUP_TABLE default
0 0.0166669 0.0166669 0.033329 0.033329 0.0499815 0.0499815 0.0666196 0.0666196 0.0832386 0.0832386 0.0998336 0.0998336 0.116399 0.116399 0.13293 0.13293 0.149419 0.149419 0.165859 0.165859 0.182244 0.182244 0.198564 0.198564 0.21481 0.21481 0.230972 0.230972 0.247038 0.247038 0.262997 0.262997 0.278835 0.278835 0.294541 0.294541 0.310103 0.310103 0.325513 0.325513 0.340765 0.340765 0.355858 0.355858 0.370796 0.370796 0.385587 0.385587 0.400244 0.400244 0.414782 0.414782 0.429216 0.429216 0.443556 0.443556 0.457805 0.457805 0.471947 0.471947 0.485949 0.485949 0.499746 0.499746 0.513234 0.513234 0.526263 0.526263 0.538621 0.538621 0.550028 0.550028 0.560141 0.560141 0.568569 0.568569 0.574915 0.574915 0.578842 0.578842 0.580131 0.580131 0.578726 0.578726 0.574741 0.574741 0.56842 0.56842 0.560084 0.560084 0.550074 0.550074 0.538707 0.538707 0.526257 0.526257 0.512942 0.512942 0.498931 0.498931 0.484349 0.484349 0.469288 0.469288 0.453813 0.453813 0.437973 0.437973 0.421809 0.421809 0.405356 0.405356 0.388655 0.388655 0.371752 0.371752 0.354707 0.354707 0.337595 0.337595 0.320505 0.320505 0.303546 0.303546 0.286841 0.286841 0.270523 
SCALARS solution_2 double 1
LOOKUP_TABLE default
0.000287385 0.000274221 0.000274221 0.000263454 0.000263454 0.000262689 0.000262689 0.0002692 0.0002692 0.000279793 0.000279793 0.000292747 0.000292747 0.000307768 0.000307768 0.000325442 0.000325442 0.000346559 0.000346559 0.000371388 0.000371388 0.000398912 0.000398912 0.000426129 0.000426129 0.000447511 0.000447511 0.000454834 0.000454834 0.000437551 0.000437551 0.000383897 0.000383897 0.000282731 0.000282731 0.000126001 0.000126001 -8.84911e-05 -8.84911e-05 -0.000354539 -0.000354539 -0.000655557 -0.000655557 -0.000963464 -0.000963464 -0.00123835 -0.00123835 -0.00142865 -0.00142865 -0.00147158 -0.00147158 -0.001294 -0.001294 -0.0008148 -0.0008148 4.91331e-05 4.91331e-05 0.00137007 0.00137007 0.00318641 0.00318641 0.00546729 0.00546729 0.00806705 0.00806705 0.0106799 0.0106799 0.0128192 0.0128192 0.0138627 0.0138627 0.0132122 0.0132122 0.010585 0.010585 0.00634796 0.00634796 0.00165259 0.00165259 -0.00189475 -0.00189475 -0.0029962 -0.0029962 -0.00136141 -0.00136141 0.0022095 0.0022095 0.00636824 0.00636824 0.00989498 0.00989498 0.0120803 0.0120803 0.0127478 0.0127478 0.0120827 0.0120827 0.0104331 0.0104331 0.00816836 0.00816836 0.00560591 0.00560591 0.00298666 0.00298666 0.000478911 0.000478911 -0.00180615 -0.00180615 -0.00379618 -0.00379618 -0.00544129 -0.00544129 -0.00670126 -0.00670126 -0.00753767 -0.00753767 -0.00791188 -0.00791188 -0.00779123 -0.00779123 -0.00716793 -0.00716793 -0.00610208 -0.00610208 -0.00481742 -0.00481742 -0.00394893 
SCALARS solution_3 double 1
LOOKUP_TABLE default
-6.72461e-05 -6.43476e-05 -6.43476e-05 -6.23152e-05 -6.23152e-05 -6.2919e-05 -6.2919e-05 -6.55664e-05 -6.55664e-05 -6.95705e-05 -6.95705e-05 -7.4597e-05 -7.4597e-05 -8.06688e-05 -8.06688e-05 -8.80608e-05 -8.80608e-05 -9.71518e-05 -9.71518e-05 -0.000108228 -0.000108228 -0.000121225 -0.000121225 -0.000135406 -0.000135406 -0.000148996 -0.000148996 -0.000158833 -0.000158833 -0.000160129 -0.000160129 -0.000146513 -0.000146513 -0.000110497 -0.000110497 -4.455e-05 -4.455e-05 5.71591e-05 5.71591e-05 0.000196453 0.000196453 0.000368546 0.000368546 0.000559613 0.000559613 0.000745055 0.000745055 0.000888892 0.000888892 0.000944481 0.000944481 0.000856505 0.000856505 0.000563943 0.000563943 3.51639e-06 3.51639e-06 -0.000886966 -0.000886966 -0.00216564 -0.00216564 -0.00388283 -0.00388283 -0.00607186 -0.00607186 -0.00872418 -0.00872418 -0.0117348 -0.0117348 -0.0148118 -0.0148118 -0.0173792 -0.0173792 -0.0185611 -0.0185611 -0.0173815 -0.0173815 -0.0132329 -0.0132329 -0.006406 -0.006406 0.00176428 0.00176428 0.00940626 0.00940626 0.0149642 0.0149642 0.017769 0.017769 0.0180307 0.0180307 0.0164566 0.0164566 0.0138472 0.0138472 0.0108555 0.0108555 0.00791688 0.00791688 0.0052766 0.0052766 0.00304798 0.00304798 0.00126649 0.00126649 -7.29653e-05 -7.29653e-05 -0.000994362 -0.000994362 -0.0015303 -0.0015303 -0.00171889 -0.00171889 -0.00160497 -0.00160497 -0.00124387 -0.00124387 -0.000706467 -0.000706467 -8.3675e-05 -8.3675e-05 0.000513641 0.000513641 0.000967472 0.000967472 0.00119167 0.00119167 0.00119564 
SCALARS solution_4 double 1
LOOKUP_TABLE default
0.249046 0.249765 0.249765 0.251797 0.251797 0.255047 0.255047 0.259474 0.259474 0.265068 0.265068 0.271827 0.271827 0.279755 0.279755 0.288857 0.288857 0.299144 0.299144 0.310632 0.310632 0.323343 0.323343 0.337304 0.337304 0.352535 0.352535 0.369038 0.369038 0.386781 0.386781 0.405673 0.405673 0.425549 0.425549 0.446151 0.446151 0.467129 0.467129 0.488045 0.488045 0.508399 0.508399 0.527671 0.527671 0.54537 0.54537 0.561103 0.561103 0.574639 0.574639 0.585986 0.585986 0.595463 0.595463 0.603773 0.603773 0.612067 0.612067 0.621978 0.621978 0.635597 0.635597 0.655345 0.655345 0.683686 0.683686 0.722628 0.722628 0.773003 0.773003 0.833606 0.833606 0.900462 0.900462 0.966674 0.966674 1.02334 1.02334 1.06161 1.06161 1.07527 1.07527 1.06262 1.06262 1.02657 1.02657 0.973262 0.973262 0.90983 0.90983 0.842569 0.842569 0.775972 0.775972 0.712563 0.712563 0.653222 0.653222 0.597661 0.597661 0.54488 0.54488 0.49352 0.49352 0.442108 0.442108 0.38921 0.38921 0.333532 0.333532 0.27398 0.27398 0.209695 0.209695 0.140104 0.140104 0.0649505 0.0649505 -0.015655 -0.015655 -0.101191 -0.101191 -0.19069 -0.19069 -0.282729 -0.282729 -0.375442 
SCALARS solution_5 double 1
LOOKUP_TABLE default
1.06676 1.06661 1.06661 1.06614 1.06614 1.06537 1.06537 1.06431 1.06431 1.06293 1.06293 1.06123 1.06123 1.05917 1.05917 1.05673 1.05673 1.05386 1.05386 1.05054 1.05054 1.0467 1.0467 1.04228 1.04228 1.03724 1.03724 1.03149 1.03149 1.02498 1.02498 1.01769 1.01769 1.00959 1.00959 1.00074 1.00074 0.99123 0.99123 0.981247 0.981247 0.971033 0.971033 0.960888 0.960888 0.951142 0.951142 0.942101 0.942101 0.933992 0.933992 0.926896 0.926896 0.920679 0.920679 0.914927 0.914927 0.908884 0.908884 0.901401 0.901401 0.890868 0.890868 0.875139 0.875139 0.851432 0.851432 0.816261 0.816261 0.765474 0.765474 0.694605 0.694605 0.599723 0.599723 0.478817 0.478817 0.333344 0.333344 0.169128 0.169128 -0.00422321 -0.00422321 -0.175457 -0.175457 -0.334471 -0.334471 -0.474425 -0.474425 -0.592406 -0.592406 -0.688799 -0.688799 -0.766066 -0.766066 -0.827571 -0.827571 -0.876753 -0.876753 -0.91667 -0.91667 -0.949811 -0.949811 -0.978067 -0.978067 -1.00277 -1.00277 -1.02473 -1.02473 -1.04435 -1.04435 -1.06162 -1.06162 -1.07617 -1.07617 -1.08738 -1.08738 -1.09436 -1.09436 -1.09607 -1.09607 -1.0914 -1.0914 -1.07929 -1.07929 -1.05893 -1.05893 -1.02981 
