# vtk DataFile Version 3.0
#This file was generated by the deal.II library on 2021/7/20 at 17:21:39
ASCII
DATASET UNSTRUCTURED_GRID

POINTS 128 double
0 0 0
0.015625 0 0
0.015625 0 0
0.03125 0 0
0.03125 0 0
0.046875 0 0
0.046875 0 0
0.0625 0 0
0.0625 0 0
0.078125 0 0
0.078125 0 0
0.09375 0 0
0.09375 0 0
0.109375 0 0
0.109375 0 0
0.125 0 0
0.125 0 0
0.140625 0 0
0.140625 0 0
0.15625 0 0
0.15625 0 0
0.171875 0 0
0.171875 0 0
0.1875 0 0
0.1875 0 0
0.203125 0 0
0.203125 0 0
0.21875 0 0
0.21875 0 0
0.234375 0 0
0.234375 0 0
0.25 0 0
0.25 0 0
0.265625 0 0
0.265625 0 0
0.28125 0 0
0.28125 0 0
0.296875 0 0
0.296875 0 0
0.3125 0 0
0.3125 0 0
0.328125 0 0
0.328125 0 0
0.34375 0 0
0.34375 0 0
0.359375 0 0
0.359375 0 0
0.375 0 0
0.375 0 0
0.390625 0 0
0.390625 0 0
0.40625 0 0
0.40625 0 0
0.421875 0 0
0.421875 0 0
0.4375 0 0
0.4375 0 0
0.453125 0 0
0.453125 0 0
0.46875 0 0
0.46875 0 0
0.484375 0 0
0.484375 0 0
0.5 0 0
0.5 0 0
0.515625 0 0
0.515625 0 0
0.53125 0 0
0.53125 0 0
0.546875 0 0
0.546875 0 0
0.5625 0 0
0.5625 0 0
0.578125 0 0
0.578125 0 0
0.59375 0 0
0.59375 0 0
0.609375 0 0
0.609375 0 0
0.625 0 0
0.625 0 0
0.640625 0 0
0.640625 0 0
0.65625 0 0
0.65625 0 0
0.671875 0 0
0.671875 0 0
0.6875 0 0
0.6875 0 0
0.703125 0 0
0.703125 0 0
0.71875 0 0
0.71875 0 0
0.734375 0 0
0.734375 0 0
0.75 0 0
0.75 0 0
0.765625 0 0
0.765625 0 0
0.78125 0 0
0.78125 0 0
0.796875 0 0
0.796875 0 0
0.8125 0 0
0.8125 0 0
0.828125 0 0
0.828125 0 0
0.84375 0 0
0.84375 0 0
0.859375 0 0
0.859375 0 0
0.875 0 0
0.875 0 0
0.890625 0 0
0.890625 0 0
0.90625 0 0
0.90625 0 0
0.921875 0 0
0.921875 0 0
0.9375 0 0
0.9375 0 0
0.953125 0 0
0.953125 0 0
0.96875 0 0
0.96875 0 0
0.984375 0 0
0.984375 0 0
1 0 0

CELLS 64 192
2	0	1
2	2	3
2	4	5
2	6	7
2	8	9
2	10	11
2	12	13
2	14	15
2	16	17
2	18	19
2	20	21
2	22	23
2	24	25
2	26	27
2	28	29
2	30	31
2	32	33
2	34	35
2	36	37
2	38	39
2	40	41
2	42	43
2	44	45
2	46	47
2	48	49
2	50	51
2	52	53
2	54	55
2	56	57
2	58	59
2	60	61
2	62	63
2	64	65
2	66	67
2	68	69
2	70	71
2	72	73
2	74	75
2	76	77
2	78	79
2	80	81
2	82	83
2	84	85
2	86	87
2	88	89
2	90	91
2	92	93
2	94	95
2	96	97
2	98	99
2	100	101
2	102	103
2	104	105
2	106	107
2	108	109
2	110	111
2	112	113
2	114	115
2	116	117
2	118	119
2	120	121
2	122	123
2	124	125
2	126	127

CELL_TYPES 64
 3 3 3 3 3 3 3 3 3 3 3 3 3 3 3 3 3 3 3 3 3 3 3 3 3 3 3 3 3 3 3 3 3 3 3 3 3 3 3 3 3 3 3 3 3 3 3 3 3 3 3 3 3 3 3 3 3 3 3 3 3 3 3 3
POINT_DATA 128
SCALARS solution_0 double 1
LOOKUP_TABLE default
0.100027 0.104647 0.104647 0.109289 0.109289 0.113977 0.113977 0.118734 0.118734 0.123582 0.123582 0.128544 0.128544 0.133642 0.133642 0.138899 0.138899 0.144336 0.144336 0.149974 0.149974 0.155836 0.155836 0.161941 0.161941 0.168309 0.168309 0.174962 0.174962 0.181916 0.181916 0.18919 0.18919 0.196802 0.196802 0.204766 0.204766 0.213099 0.213099 0.221814 0.221814 0.230922 0.230922 0.240434 0.240434 0.250359 0.250359 0.260704 0.260704 0.271473 0.271473 0.282667 0.282667 0.294288 0.294288 0.30633 0.30633 0.318789 0.318789 0.331655 0.331655 0.344915 0.344915 0.358553 0.358553 0.372548 0.372548 0.386877 0.386877 0.40151 0.40151 0.416416 0.416416 0.431558 0.431558 0.446893 0.446893 0.462376 0.462376 0.477956 0.477956 0.493577 0.493577 0.50918 0.50918 0.5247 0.5247 0.540068 0.540068 0.555211 0.555211 0.570054 0.570054 0.584516 0.584516 0.598515 0.598515 0.611966 0.611966 0.624783 0.624783 0.636877 0.636877 0.648161 0.648161 0.658549 0.658549 0.667955 0.667955 0.676297 0.676297 0.683497 0.683497 0.68948 0.68948 0.69418 0.69418 0.697539 0.697539 0.699505 0.699505 0.700038 0.700038 0.699111 0.699111 0.696707 0.696707 0.692826 
SCALARS solution_1 double 1
LOOKUP_TABLE default
0 0.0149265 0.0149265 0.029846 0.029846 0.044751 0.044751 0.0596344 0.0596344 0.0744882 0.0744882 0.0893043 0.0893043 0.104074 0.104074 0.118788 0.118788 0.133437 0.133437 0.148009 0.148009 0.162493 0.162493 0.176875 0.176875 0.191143 0.191143 0.205281 0.205281 0.219273 0.219273 0.233101 0.233101 0.246746 0.246746 0.260188 0.260188 0.273405 0.273405 0.286374 0.286374 0.299068 0.299068 0.311463 0.311463 0.32353 0.32353 0.335239 0.335239 0.34656 0.34656 0.357459 0.357459 0.367902 0.367902 0.377856 0.377856 0.387284 0.387284 0.396147 0.396147 0.40441 0.40441 0.412033 0.412033 0.418977 0.418977 0.425204 0.425204 0.430676 0.430676 0.435354 0.435354 0.439203 0.439203 0.442186 0.442186 0.444271 0.444271 0.445426 0.445426 0.445624 0.445624 0.44484 0.44484 0.443052 0.443052 0.440246 0.440246 0.436409 0.436409 0.431538 0.431538 0.425632 0.425632 0.418699 0.418699 0.410756 0.410756 0.401825 0.401825 0.391938 0.391938 0.381136 0.381136 0.36947 0.36947 0.356999 0.356999 0.343792 0.343792 0.32993 0.32993 0.315501 0.315501 0.300606 0.300606 0.285351 0.285351 0.269856 0.269856 0.254245 0.254245 0.238654 0.238654 0.223221 0.223221 0.208092 
SCALARS solution_2 double 1
LOOKUP_TABLE default
0.000310842 0.000316219 0.000316219 0.000328114 0.000328114 0.00034139 0.00034139 0.000354969 0.000354969 0.000368641 0.000368641 0.000382382 0.000382382 0.000396203 0.000396203 0.000410115 0.000410115 0.000424123 0.000424123 0.000438221 0.000438221 0.000452391 0.000452391 0.000466603 0.000466603 0.000480809 0.000480809 0.000494946 0.000494946 0.000508934 0.000508934 0.000522669 0.000522669 0.000536029 0.000536029 0.000548865 0.000548865 0.000561003 0.000561003 0.000572243 0.000572243 0.000582354 0.000582354 0.000591078 0.000591078 0.000598123 0.000598123 0.000603167 0.000603167 0.000605858 0.000605858 0.00060581 0.00060581 0.000602611 0.000602611 0.000595821 0.000595821 0.000584975 0.000584975 0.00056959 0.00056959 0.000549171 0.000549171 0.000523214 0.000523214 0.000491221 0.000491221 0.000452701 0.000452701 0.000407192 0.000407192 0.000354266 0.000354266 0.000293546 0.000293546 0.000224725 0.000224725 0.000147577 0.000147577 6.19799e-05 6.19799e-05 -3.20701e-05 -3.20701e-05 -0.000134438 -0.000134438 -0.000244832 -0.000244832 -0.000362791 -0.000362791 -0.000487663 -0.000487663 -0.0006186 -0.0006186 -0.000754545 -0.000754545 -0.00089423 -0.00089423 -0.00103617 -0.00103617 -0.0011787 -0.0011787 -0.00131992 -0.00131992 -0.00145779 -0.00145779 -0.00159013 -0.00159013 -0.00171465 -0.00171465 -0.00182898 -0.00182898 -0.00193077 -0.00193077 -0.00201771 -0.00201771 -0.00208763 -0.00208763 -0.00213859 -0.00213859 -0.00216906 -0.00216906 -0.00217825 -0.00217825 -0.0021671 -0.0021671 -0.00214095 -0.00214095 -0.00213038 
SCALARS solution_3 double 1
LOOKUP_TABLE default
-9.62845e-05 -9.8225e-05 -9.8225e-05 -0.000102766 -0.000102766 -0.000108382 -0.000108382 -0.000114813 -0.000114813 -0.000122071 -0.000122071 -0.000130231 -0.000130231 -0.000139382 -0.000139382 -0.000149621 -0.000149621 -0.00016105 -0.00016105 -0.000173775 -0.000173775 -0.000187907 -0.000187907 -0.000203561 -0.000203561 -0.000220855 -0.000220855 -0.000239913 -0.000239913 -0.000260861 -0.000260861 -0.000283826 -0.000283826 -0.000308935 -0.000308935 -0.000336315 -0.000336315 -0.000366088 -0.000366088 -0.000398369 -0.000398369 -0.000433263 -0.000433263 -0.000470864 -0.000470864 -0.000511245 -0.000511245 -0.000554459 -0.000554459 -0.00060053 -0.00060053 -0.000649451 -0.000649451 -0.000701173 -0.000701173 -0.000755605 -0.000755605 -0.0008126 -0.0008126 -0.000871954 -0.000871954 -0.000933398 -0.000933398 -0.00099659 -0.00099659 -0.00106111 -0.00106111 -0.00112645 -0.00112645 -0.00119202 -0.00119202 -0.00125715 -0.00125715 -0.00132104 -0.00132104 -0.00138283 -0.00138283 -0.00144156 -0.00144156 -0.00149619 -0.00149619 -0.0015456 -0.0015456 -0.00158861 -0.00158861 -0.00162397 -0.00162397 -0.00165042 -0.00165042 -0.00166669 -0.00166669 -0.00167152 -0.00167152 -0.00166371 -0.00166371 -0.00164214 -0.00164214 -0.00160579 -0.00160579 -0.0015538 -0.0015538 -0.00148553 -0.00148553 -0.00140055 -0.00140055 -0.0012987 -0.0012987 -0.00118013 -0.00118013 -0.00104532 -0.00104532 -0.000895117 -0.000895117 -0.000730735 -0.000730735 -0.000553767 -0.000553767 -0.000366182 -0.000366182 -0.000170317 -0.000170317 3.10093e-05 3.10093e-05 0.000233444 0.000233444 0.000423875 0.000423875 0.00053751 
SCALARS solution_4 double 1
LOOKUP_TABLE default
0.295271 0.29601 0.29601 0.298212 0.298212 0.301876 0.301876 0.306995 0.306995 0.313563 0.313563 0.321568 0.321568 0.330999 0.330999 0.341839 0.341839 0.354068 0.354068 0.367665 0.367665 0.382601 0.382601 0.398846 0.398846 0.416361 0.416361 0.435106 0.435106 0.455031 0.455031 0.476081 0.476081 0.498192 0.498192 0.521295 0.521295 0.545309 0.545309 0.570145 0.570145 0.595705 0.595705 0.621878 0.621878 0.648544 0.648544 0.675569 0.675569 0.70281 0.70281 0.730109 0.730109 0.757294 0.757294 0.784181 0.784181 0.810574 0.810574 0.83626 0.83626 0.861017 0.861017 0.884607 0.884607 0.906782 0.906782 0.92728 0.92728 0.94583 0.94583 0.962154 0.962154 0.975963 0.975963 0.986964 0.986964 0.994861 0.994861 0.999358 0.999358 1.00016 1.00016 0.99698 0.99698 0.989536 0.989536 0.977563 0.977563 0.960813 0.960813 0.939059 0.939059 0.912102 0.912102 0.879776 0.879776 0.841953 0.841953 0.798547 0.798547 0.749522 0.749522 0.694897 0.694897 0.634749 0.634749 0.569224 0.569224 0.498535 0.498535 0.42297 0.42297 0.342897 0.342897 0.258765 0.258765 0.171106 0.171106 0.0805358 0.0805358 -0.012243 -0.012243 -0.106447 -0.106447 -0.201213 -0.201213 -0.295592 
SCALARS solution_5 double 1
LOOKUP_TABLE default
0.955414 0.955185 0.955185 0.9545 0.9545 0.953349 0.953349 0.951714 0.951714 0.949573 0.949573 0.946894 0.946894 0.943641 0.943641 0.939772 0.939772 0.935237 0.935237 0.92998 0.92998 0.923939 0.923939 0.917049 0.917049 0.909236 0.909236 0.900422 0.900422 0.890525 0.890525 0.879459 0.879459 0.867132 0.867132 0.853451 0.853451 0.83832 0.83832 0.82164 0.82164 0.803312 0.803312 0.783236 0.783236 0.761314 0.761314 0.73745 0.73745 0.71155 0.71155 0.683526 0.683526 0.653294 0.653294 0.620781 0.620781 0.585919 0.585919 0.548655 0.548655 0.508947 0.508947 0.466768 0.466768 0.422108 0.422108 0.374976 0.374976 0.325402 0.325402 0.27344 0.27344 0.21917 0.21917 0.162697 0.162697 0.104159 0.104159 0.0437232 0.0437232 -0.0184092 -0.0184092 -0.0820017 -0.0820017 -0.146782 -0.146782 -0.21244 -0.21244 -0.27863 -0.27863 -0.344964 -0.344964 -0.41102 -0.41102 -0.476339 -0.476339 -0.540424 -0.540424 -0.602748 -0.602748 -0.662751 -0.662751 -0.719848 -0.719848 -0.773432 -0.773432 -0.822879 -0.822879 -0.867555 -0.867555 -0.906823 -0.906823 -0.940052 -0.940052 -0.966624 -0.966624 -0.985946 -0.985946 -0.99746 -0.99746 -1.00066 -1.00066 -0.995075 -0.995075 -0.980345 -0.980345 -0.956119 
