# vtk DataFile Version 3.0
#This file was generated by the deal.II library on 2021/7/15 at 18:18:02
ASCII
DATASET UNSTRUCTURED_GRID

POINTS 128 double
0 0 0
0.015625 0 0
0.015625 0 0
0.03125 0 0
0.03125 0 0
0.046875 0 0
0.046875 0 0
0.0625 0 0
0.0625 0 0
0.078125 0 0
0.078125 0 0
0.09375 0 0
0.09375 0 0
0.109375 0 0
0.109375 0 0
0.125 0 0
0.125 0 0
0.140625 0 0
0.140625 0 0
0.15625 0 0
0.15625 0 0
0.171875 0 0
0.171875 0 0
0.1875 0 0
0.1875 0 0
0.203125 0 0
0.203125 0 0
0.21875 0 0
0.21875 0 0
0.234375 0 0
0.234375 0 0
0.25 0 0
0.25 0 0
0.265625 0 0
0.265625 0 0
0.28125 0 0
0.28125 0 0
0.296875 0 0
0.296875 0 0
0.3125 0 0
0.3125 0 0
0.328125 0 0
0.328125 0 0
0.34375 0 0
0.34375 0 0
0.359375 0 0
0.359375 0 0
0.375 0 0
0.375 0 0
0.390625 0 0
0.390625 0 0
0.40625 0 0
0.40625 0 0
0.421875 0 0
0.421875 0 0
0.4375 0 0
0.4375 0 0
0.453125 0 0
0.453125 0 0
0.46875 0 0
0.46875 0 0
0.484375 0 0
0.484375 0 0
0.5 0 0
0.5 0 0
0.515625 0 0
0.515625 0 0
0.53125 0 0
0.53125 0 0
0.546875 0 0
0.546875 0 0
0.5625 0 0
0.5625 0 0
0.578125 0 0
0.578125 0 0
0.59375 0 0
0.59375 0 0
0.609375 0 0
0.609375 0 0
0.625 0 0
0.625 0 0
0.640625 0 0
0.640625 0 0
0.65625 0 0
0.65625 0 0
0.671875 0 0
0.671875 0 0
0.6875 0 0
0.6875 0 0
0.703125 0 0
0.703125 0 0
0.71875 0 0
0.71875 0 0
0.734375 0 0
0.734375 0 0
0.75 0 0
0.75 0 0
0.765625 0 0
0.765625 0 0
0.78125 0 0
0.78125 0 0
0.796875 0 0
0.796875 0 0
0.8125 0 0
0.8125 0 0
0.828125 0 0
0.828125 0 0
0.84375 0 0
0.84375 0 0
0.859375 0 0
0.859375 0 0
0.875 0 0
0.875 0 0
0.890625 0 0
0.890625 0 0
0.90625 0 0
0.90625 0 0
0.921875 0 0
0.921875 0 0
0.9375 0 0
0.9375 0 0
0.953125 0 0
0.953125 0 0
0.96875 0 0
0.96875 0 0
0.984375 0 0
0.984375 0 0
1 0 0

CELLS 64 192
2	0	1
2	2	3
2	4	5
2	6	7
2	8	9
2	10	11
2	12	13
2	14	15
2	16	17
2	18	19
2	20	21
2	22	23
2	24	25
2	26	27
2	28	29
2	30	31
2	32	33
2	34	35
2	36	37
2	38	39
2	40	41
2	42	43
2	44	45
2	46	47
2	48	49
2	50	51
2	52	53
2	54	55
2	56	57
2	58	59
2	60	61
2	62	63
2	64	65
2	66	67
2	68	69
2	70	71
2	72	73
2	74	75
2	76	77
2	78	79
2	80	81
2	82	83
2	84	85
2	86	87
2	88	89
2	90	91
2	92	93
2	94	95
2	96	97
2	98	99
2	100	101
2	102	103
2	104	105
2	106	107
2	108	109
2	110	111
2	112	113
2	114	115
2	116	117
2	118	119
2	120	121
2	122	123
2	124	125
2	126	127

CELL_TYPES 64
 3 3 3 3 3 3 3 3 3 3 3 3 3 3 3 3 3 3 3 3 3 3 3 3 3 3 3 3 3 3 3 3 3 3 3 3 3 3 3 3 3 3 3 3 3 3 3 3 3 3 3 3 3 3 3 3 3 3 3 3 3 3 3 3
POINT_DATA 128
SCALARS solution_0 double 1
LOOKUP_TABLE default
1 1.00194 1.00194 1.00464 1.00464 1.00809 1.00809 1.01229 1.01229 1.01721 1.01721 1.02286 1.02286 1.02922 1.02922 1.03627 1.03627 1.044 1.044 1.05238 1.05238 1.0614 1.0614 1.07103 1.07103 1.08126 1.08126 1.09205 1.09205 1.10339 1.10339 1.11524 1.11524 1.12757 1.12757 1.14036 1.14036 1.15357 1.15357 1.16718 1.16718 1.18115 1.18115 1.19544 1.19544 1.21003 1.21003 1.22488 1.22488 1.23994 1.23994 1.25519 1.25519 1.27059 1.27059 1.2861 1.2861 1.30168 1.30168 1.3173 1.3173 1.33292 1.33292 1.3485 1.3485 1.364 1.364 1.37939 1.37939 1.39463 1.39463 1.40968 1.40968 1.4245 1.4245 1.43907 1.43907 1.45334 1.45334 1.46728 1.46728 1.48086 1.48086 1.49405 1.49405 1.5068 1.5068 1.5191 1.5191 1.53091 1.53091 1.54221 1.54221 1.55296 1.55296 1.56314 1.56314 1.57273 1.57273 1.58171 1.58171 1.59004 1.59004 1.59772 1.59772 1.60472 1.60472 1.61102 1.61102 1.61662 1.61662 1.62149 1.62149 1.62563 1.62563 1.62903 1.62903 1.63167 1.63167 1.63355 1.63355 1.63467 1.63467 1.63503 1.63503 1.63462 1.63462 1.63344 
SCALARS solution_1 double 1
LOOKUP_TABLE default
0 0.0155024 0.0155024 0.0308909 0.0308909 0.0461285 0.0461285 0.0611783 0.0611783 0.0760043 0.0760043 0.0905705 0.0905705 0.104842 0.104842 0.118784 0.118784 0.132364 0.132364 0.145548 0.145548 0.158305 0.158305 0.170604 0.170604 0.182416 0.182416 0.193712 0.193712 0.204464 0.204464 0.214647 0.214647 0.224237 0.224237 0.233209 0.233209 0.241544 0.241544 0.24922 0.24922 0.256219 0.256219 0.262524 0.262524 0.26812 0.26812 0.272994 0.272994 0.277133 0.277133 0.280529 0.280529 0.283172 0.283172 0.285056 0.285056 0.286177 0.286177 0.286532 0.286532 0.28612 0.28612 0.284942 0.284942 0.283001 0.283001 0.280302 0.280302 0.276851 0.276851 0.272657 0.272657 0.267729 0.267729 0.26208 0.26208 0.255722 0.255722 0.248672 0.248672 0.240947 0.240947 0.232564 0.232564 0.223545 0.223545 0.21391 0.21391 0.203684 0.203684 0.192891 0.192891 0.181556 0.181556 0.169707 0.169707 0.157373 0.157373 0.144583 0.144583 0.131368 0.131368 0.11776 0.11776 0.103792 0.103792 0.0894977 0.0894977 0.074911 0.074911 0.0600672 0.0600672 0.0450021 0.0450021 0.0297521 0.0297521 0.0143538 0.0143538 -0.00115559 -0.00115559 -0.0167388 -0.0167388 -0.0323582 -0.0323582 -0.0479762 -0.0479762 -0.0635551 
