# vtk DataFile Version 3.0
#This file was generated by the deal.II library on 2021/7/21 at 17:29:07
ASCII
DATASET UNSTRUCTURED_GRID

POINTS 128 double
0 0 0
0.015625 0 0
0.015625 0 0
0.03125 0 0
0.03125 0 0
0.046875 0 0
0.046875 0 0
0.0625 0 0
0.0625 0 0
0.078125 0 0
0.078125 0 0
0.09375 0 0
0.09375 0 0
0.109375 0 0
0.109375 0 0
0.125 0 0
0.125 0 0
0.140625 0 0
0.140625 0 0
0.15625 0 0
0.15625 0 0
0.171875 0 0
0.171875 0 0
0.1875 0 0
0.1875 0 0
0.203125 0 0
0.203125 0 0
0.21875 0 0
0.21875 0 0
0.234375 0 0
0.234375 0 0
0.25 0 0
0.25 0 0
0.265625 0 0
0.265625 0 0
0.28125 0 0
0.28125 0 0
0.296875 0 0
0.296875 0 0
0.3125 0 0
0.3125 0 0
0.328125 0 0
0.328125 0 0
0.34375 0 0
0.34375 0 0
0.359375 0 0
0.359375 0 0
0.375 0 0
0.375 0 0
0.390625 0 0
0.390625 0 0
0.40625 0 0
0.40625 0 0
0.421875 0 0
0.421875 0 0
0.4375 0 0
0.4375 0 0
0.453125 0 0
0.453125 0 0
0.46875 0 0
0.46875 0 0
0.484375 0 0
0.484375 0 0
0.5 0 0
0.5 0 0
0.515625 0 0
0.515625 0 0
0.53125 0 0
0.53125 0 0
0.546875 0 0
0.546875 0 0
0.5625 0 0
0.5625 0 0
0.578125 0 0
0.578125 0 0
0.59375 0 0
0.59375 0 0
0.609375 0 0
0.609375 0 0
0.625 0 0
0.625 0 0
0.640625 0 0
0.640625 0 0
0.65625 0 0
0.65625 0 0
0.671875 0 0
0.671875 0 0
0.6875 0 0
0.6875 0 0
0.703125 0 0
0.703125 0 0
0.71875 0 0
0.71875 0 0
0.734375 0 0
0.734375 0 0
0.75 0 0
0.75 0 0
0.765625 0 0
0.765625 0 0
0.78125 0 0
0.78125 0 0
0.796875 0 0
0.796875 0 0
0.8125 0 0
0.8125 0 0
0.828125 0 0
0.828125 0 0
0.84375 0 0
0.84375 0 0
0.859375 0 0
0.859375 0 0
0.875 0 0
0.875 0 0
0.890625 0 0
0.890625 0 0
0.90625 0 0
0.90625 0 0
0.921875 0 0
0.921875 0 0
0.9375 0 0
0.9375 0 0
0.953125 0 0
0.953125 0 0
0.96875 0 0
0.96875 0 0
0.984375 0 0
0.984375 0 0
1 0 0

CELLS 64 192
2	0	1
2	2	3
2	4	5
2	6	7
2	8	9
2	10	11
2	12	13
2	14	15
2	16	17
2	18	19
2	20	21
2	22	23
2	24	25
2	26	27
2	28	29
2	30	31
2	32	33
2	34	35
2	36	37
2	38	39
2	40	41
2	42	43
2	44	45
2	46	47
2	48	49
2	50	51
2	52	53
2	54	55
2	56	57
2	58	59
2	60	61
2	62	63
2	64	65
2	66	67
2	68	69
2	70	71
2	72	73
2	74	75
2	76	77
2	78	79
2	80	81
2	82	83
2	84	85
2	86	87
2	88	89
2	90	91
2	92	93
2	94	95
2	96	97
2	98	99
2	100	101
2	102	103
2	104	105
2	106	107
2	108	109
2	110	111
2	112	113
2	114	115
2	116	117
2	118	119
2	120	121
2	122	123
2	124	125
2	126	127

CELL_TYPES 64
 3 3 3 3 3 3 3 3 3 3 3 3 3 3 3 3 3 3 3 3 3 3 3 3 3 3 3 3 3 3 3 3 3 3 3 3 3 3 3 3 3 3 3 3 3 3 3 3 3 3 3 3 3 3 3 3 3 3 3 3 3 3 3 3
POINT_DATA 128
SCALARS solution_0 double 1
LOOKUP_TABLE default
0.168073 0.169031 0.169031 0.170013 0.170013 0.171047 0.171047 0.172158 0.172158 0.173376 0.173376 0.174731 0.174731 0.176254 0.176254 0.177978 0.177978 0.179938 0.179938 0.182169 0.182169 0.184708 0.184708 0.187593 0.187593 0.190864 0.190864 0.194561 0.194561 0.198726 0.198726 0.2034 0.2034 0.208625 0.208625 0.214443 0.214443 0.220894 0.220894 0.228018 0.228018 0.235852 0.235852 0.244431 0.244431 0.253785 0.253785 0.26394 0.26394 0.274914 0.274914 0.28672 0.28672 0.299359 0.299359 0.312824 0.312824 0.327095 0.327095 0.34214 0.34214 0.357914 0.357914 0.374356 0.374356 0.39139 0.39139 0.408929 0.408929 0.42687 0.42687 0.4451 0.4451 0.463497 0.463497 0.481933 0.481933 0.500276 0.500276 0.518396 0.518396 0.536165 0.536165 0.553461 0.553461 0.570174 0.570174 0.5862 0.5862 0.601449 0.601449 0.615841 0.615841 0.629308 0.629308 0.641791 0.641791 0.653239 0.653239 0.663609 0.663609 0.672863 0.672863 0.680964 0.680964 0.68788 0.68788 0.693579 0.693579 0.698029 0.698029 0.701198 0.701198 0.703057 0.703057 0.703578 0.703578 0.702732 0.702732 0.700501 0.700501 0.696867 0.696867 0.691824 0.691824 0.685376 0.685376 0.677538 
SCALARS solution_1 double 1
LOOKUP_TABLE default
0 0.0184629 0.0184629 0.0369245 0.0369245 0.0553833 0.0553833 0.0738375 0.0738375 0.0922849 0.0922849 0.110723 0.110723 0.129147 0.129147 0.147554 0.147554 0.165937 0.165937 0.184288 0.184288 0.2026 0.2026 0.220859 0.220859 0.239053 0.239053 0.257164 0.257164 0.275173 0.275173 0.293056 0.293056 0.310785 0.310785 0.328327 0.328327 0.345644 0.345644 0.362695 0.362695 0.379429 0.379429 0.395791 0.395791 0.411721 0.411721 0.427151 0.427151 0.442005 0.442005 0.456205 0.456205 0.469664 0.469664 0.482293 0.482293 0.493998 0.493998 0.504684 0.504684 0.514257 0.514257 0.522624 0.522624 0.5297 0.5297 0.535405 0.535405 0.539671 0.539671 0.542443 0.542443 0.543682 0.543682 0.543366 0.543366 0.54149 0.54149 0.538067 0.538067 0.53313 0.53313 0.526725 0.526725 0.518914 0.518914 0.509771 0.509771 0.499376 0.499376 0.487819 0.487819 0.47519 0.47519 0.461582 0.461582 0.447089 0.447089 0.431802 0.431802 0.415811 0.415811 0.399203 0.399203 0.382066 0.382066 0.364485 0.364485 0.346545 0.346545 0.328336 0.328336 0.309945 0.309945 0.291468 0.291468 0.273004 0.273004 0.254655 0.254655 0.236533 0.236533 0.218752 0.218752 0.201431 0.201431 0.184693 
SCALARS solution_2 double 1
LOOKUP_TABLE default
0.00100234 0.00103778 0.00103778 0.0011071 0.0011071 0.00118898 0.00118898 0.00127748 0.00127748 0.00137098 0.00137098 0.00146906 0.00146906 0.00157161 0.00157161 0.00167853 0.00167853 0.00178968 0.00178968 0.00190479 0.00190479 0.00202344 0.00202344 0.002145 0.002145 0.0022686 0.0022686 0.00239307 0.00239307 0.00251685 0.00251685 0.00263795 0.00263795 0.00275385 0.00275385 0.00286142 0.00286142 0.00295687 0.00295687 0.00303569 0.00303569 0.00309263 0.00309263 0.00312176 0.00312176 0.00311659 0.00311659 0.00307035 0.00307035 0.00297633 0.00297633 0.00282856 0.00282856 0.00262248 0.00262248 0.00235596 0.00235596 0.00203034 0.00203034 0.00165148 0.00165148 0.00123068 0.00123068 0.000785185 0.000785185 0.000338021 0.000338021 -8.30046e-05 -8.30046e-05 -0.000447302 -0.000447302 -0.00072444 -0.00072444 -0.000887759 -0.000887759 -0.000918169 -0.000918169 -0.000807497 -0.000807497 -0.000560738 -0.000560738 -0.000196681 -0.000196681 0.000253291 0.000253291 0.000748132 0.000748132 0.00124131 0.00124131 0.00168559 0.00168559 0.00203768 0.00203768 0.00226218 0.00226218 0.00233437 0.00233437 0.00224177 0.00224177 0.00198452 0.00198452 0.00157477 0.00157477 0.0010353 0.0010353 0.000397762 0.000397762 -0.000299461 -0.000299461 -0.00101357 -0.00101357 -0.0016999 -0.0016999 -0.00231462 -0.00231462 -0.00281788 -0.00281788 -0.00317719 -0.00317719 -0.0033714 -0.0033714 -0.00339567 -0.00339567 -0.00326906 -0.00326906 -0.00305053 -0.00305053 -0.00289411 
SCALARS solution_3 double 1
LOOKUP_TABLE default
-5.22366e-05 -5.48197e-05 -5.48197e-05 -6.08792e-05 -6.08792e-05 -6.97771e-05 -6.97771e-05 -8.17788e-05 -8.17788e-05 -9.74614e-05 -9.74614e-05 -0.000117556 -0.000117556 -0.000142907 -0.000142907 -0.000174468 -0.000174468 -0.000213301 -0.000213301 -0.000260577 -0.000260577 -0.000317574 -0.000317574 -0.00038567 -0.00038567 -0.000466324 -0.000466324 -0.000561053 -0.000561053 -0.000671387 -0.000671387 -0.000798803 -0.000798803 -0.000944641 -0.000944641 -0.00110998 -0.00110998 -0.00129547 -0.00129547 -0.00150113 -0.00150113 -0.00172608 -0.00172608 -0.00196827 -0.00196827 -0.00222408 -0.00222408 -0.00248796 -0.00248796 -0.00275211 -0.00275211 -0.00300614 -0.00300614 -0.00323696 -0.00323696 -0.00342889 -0.00342889 -0.00356405 -0.00356405 -0.00362336 -0.00362336 -0.00358786 -0.00358786 -0.00344071 -0.00344071 -0.0031695 -0.0031695 -0.0027687 -0.0027687 -0.00224192 -0.00224192 -0.0016035 -0.0016035 -0.000878925 -0.000878925 -0.000103812 -0.000103812 0.000678656 0.000678656 0.00142164 0.00142164 0.00207936 0.00207936 0.00261194 0.00261194 0.00298953 0.00298953 0.00319522 0.00319522 0.00322621 0.00322621 0.00309345 0.00309345 0.00281973 0.00281973 0.00243685 0.00243685 0.00198235 0.00198235 0.00149614 0.00149614 0.00101739 0.00101739 0.00058192 0.00058192 0.000220007 0.000220007 -4.53245e-05 -4.53245e-05 -0.000199627 -0.000199627 -0.000237976 -0.000237976 -0.000165512 -0.000165512 2.55885e-06 2.55885e-06 0.000241742 0.000241742 0.000520162 0.000520162 0.000802122 0.000802122 0.00105367 0.00105367 0.00124717 0.00124717 0.00133793 
SCALARS solution_4 double 1
LOOKUP_TABLE default
0.0609048 0.0616867 0.0616867 0.0640848 0.0640848 0.0681847 0.0681847 0.074074 0.074074 0.0818417 0.0818417 0.0915781 0.0915781 0.103374 0.103374 0.117321 0.117321 0.133508 0.133508 0.152023 0.152023 0.172949 0.172949 0.196364 0.196364 0.222337 0.222337 0.250925 0.250925 0.28217 0.28217 0.316095 0.316095 0.352699 0.352699 0.391952 0.391952 0.433786 0.433786 0.478092 0.478092 0.524707 0.524707 0.573414 0.573414 0.623924 0.623924 0.675878 0.675878 0.728832 0.728832 0.782259 0.782259 0.835541 0.835541 0.887973 0.887973 0.938767 0.938767 0.987069 0.987069 1.03197 1.03197 1.07255 1.07255 1.10787 1.10787 1.13707 1.13707 1.15936 1.15936 1.17408 1.17408 1.18074 1.18074 1.17904 1.17904 1.16889 1.16889 1.15043 1.15043 1.12397 1.12397 1.09001 1.09001 1.04917 1.04917 1.00215 1.00215 0.949691 0.949691 0.892507 0.892507 0.831268 0.831268 0.76656 0.76656 0.698865 0.698865 0.628557 0.628557 0.555903 0.555903 0.481077 0.481077 0.404176 0.404176 0.325245 0.325245 0.24431 0.24431 0.161398 0.161398 0.0765775 0.0765775 -0.0100192 -0.0100192 -0.0981662 -0.0981662 -0.187524 -0.187524 -0.277625 -0.277625 -0.367866 -0.367866 -0.457517 -0.457517 -0.545717 
SCALARS solution_5 double 1
LOOKUP_TABLE default
1.18165 1.18161 1.18161 1.18148 1.18148 1.18125 1.18125 1.18089 1.18089 1.18038 1.18038 1.17966 1.17966 1.17868 1.17868 1.17737 1.17737 1.17564 1.17564 1.17338 1.17338 1.17046 1.17046 1.16675 1.16675 1.16206 1.16206 1.1562 1.1562 1.14895 1.14895 1.14005 1.14005 1.12922 1.12922 1.11615 1.11615 1.10051 1.10051 1.08193 1.08193 1.06003 1.06003 1.0344 1.0344 1.00464 1.00464 0.970325 0.970325 0.931066 0.931066 0.886493 0.886493 0.836283 0.836283 0.780183 0.780183 0.718032 0.718032 0.649783 0.649783 0.575527 0.575527 0.495512 0.495512 0.410158 0.410158 0.32006 0.32006 0.225989 0.225989 0.128867 0.128867 0.0297437 0.0297437 -0.0702449 -0.0702449 -0.169927 -0.169927 -0.268148 -0.268148 -0.363821 -0.363821 -0.455971 -0.455971 -0.543775 -0.543775 -0.62658 -0.62658 -0.703909 -0.703909 -0.775456 -0.775456 -0.841065 -0.841065 -0.900701 -0.900701 -0.95442 -0.95442 -1.00233 -1.00233 -1.04455 -1.04455 -1.0812 -1.0812 -1.11236 -1.11236 -1.13804 -1.13804 -1.15819 -1.15819 -1.17268 -1.17268 -1.18129 -1.18129 -1.18375 -1.18375 -1.17973 -1.17973 -1.16886 -1.16886 -1.1508 -1.1508 -1.12522 -1.12522 -1.09187 -1.09187 -1.05058 
