# vtk DataFile Version 3.0
#This file was generated by the deal.II library on 2021/7/12 at 15:32:03
ASCII
DATASET UNSTRUCTURED_GRID

POINTS 128 double
0 0 0
0.015625 0 0
0.015625 0 0
0.03125 0 0
0.03125 0 0
0.046875 0 0
0.046875 0 0
0.0625 0 0
0.0625 0 0
0.078125 0 0
0.078125 0 0
0.09375 0 0
0.09375 0 0
0.109375 0 0
0.109375 0 0
0.125 0 0
0.125 0 0
0.140625 0 0
0.140625 0 0
0.15625 0 0
0.15625 0 0
0.171875 0 0
0.171875 0 0
0.1875 0 0
0.1875 0 0
0.203125 0 0
0.203125 0 0
0.21875 0 0
0.21875 0 0
0.234375 0 0
0.234375 0 0
0.25 0 0
0.25 0 0
0.265625 0 0
0.265625 0 0
0.28125 0 0
0.28125 0 0
0.296875 0 0
0.296875 0 0
0.3125 0 0
0.3125 0 0
0.328125 0 0
0.328125 0 0
0.34375 0 0
0.34375 0 0
0.359375 0 0
0.359375 0 0
0.375 0 0
0.375 0 0
0.390625 0 0
0.390625 0 0
0.40625 0 0
0.40625 0 0
0.421875 0 0
0.421875 0 0
0.4375 0 0
0.4375 0 0
0.453125 0 0
0.453125 0 0
0.46875 0 0
0.46875 0 0
0.484375 0 0
0.484375 0 0
0.5 0 0
0.5 0 0
0.515625 0 0
0.515625 0 0
0.53125 0 0
0.53125 0 0
0.546875 0 0
0.546875 0 0
0.5625 0 0
0.5625 0 0
0.578125 0 0
0.578125 0 0
0.59375 0 0
0.59375 0 0
0.609375 0 0
0.609375 0 0
0.625 0 0
0.625 0 0
0.640625 0 0
0.640625 0 0
0.65625 0 0
0.65625 0 0
0.671875 0 0
0.671875 0 0
0.6875 0 0
0.6875 0 0
0.703125 0 0
0.703125 0 0
0.71875 0 0
0.71875 0 0
0.734375 0 0
0.734375 0 0
0.75 0 0
0.75 0 0
0.765625 0 0
0.765625 0 0
0.78125 0 0
0.78125 0 0
0.796875 0 0
0.796875 0 0
0.8125 0 0
0.8125 0 0
0.828125 0 0
0.828125 0 0
0.84375 0 0
0.84375 0 0
0.859375 0 0
0.859375 0 0
0.875 0 0
0.875 0 0
0.890625 0 0
0.890625 0 0
0.90625 0 0
0.90625 0 0
0.921875 0 0
0.921875 0 0
0.9375 0 0
0.9375 0 0
0.953125 0 0
0.953125 0 0
0.96875 0 0
0.96875 0 0
0.984375 0 0
0.984375 0 0
1 0 0

CELLS 64 192
2	0	1
2	2	3
2	4	5
2	6	7
2	8	9
2	10	11
2	12	13
2	14	15
2	16	17
2	18	19
2	20	21
2	22	23
2	24	25
2	26	27
2	28	29
2	30	31
2	32	33
2	34	35
2	36	37
2	38	39
2	40	41
2	42	43
2	44	45
2	46	47
2	48	49
2	50	51
2	52	53
2	54	55
2	56	57
2	58	59
2	60	61
2	62	63
2	64	65
2	66	67
2	68	69
2	70	71
2	72	73
2	74	75
2	76	77
2	78	79
2	80	81
2	82	83
2	84	85
2	86	87
2	88	89
2	90	91
2	92	93
2	94	95
2	96	97
2	98	99
2	100	101
2	102	103
2	104	105
2	106	107
2	108	109
2	110	111
2	112	113
2	114	115
2	116	117
2	118	119
2	120	121
2	122	123
2	124	125
2	126	127

CELL_TYPES 64
 3 3 3 3 3 3 3 3 3 3 3 3 3 3 3 3 3 3 3 3 3 3 3 3 3 3 3 3 3 3 3 3 3 3 3 3 3 3 3 3 3 3 3 3 3 3 3 3 3 3 3 3 3 3 3 3 3 3 3 3 3 3 3 3
POINT_DATA 128
SCALARS solution_0 double 1
LOOKUP_TABLE default
0.875011 0.882701 0.882701 0.890147 0.890147 0.897349 0.897349 0.904307 0.904307 0.911021 0.911021 0.91749 0.91749 0.923716 0.923716 0.929697 0.929697 0.935434 0.935434 0.940927 0.940927 0.946176 0.946176 0.951181 0.951181 0.955942 0.955942 0.960458 0.960458 0.964731 0.964731 0.968759 0.968759 0.972543 0.972543 0.976083 0.976083 0.979379 0.979379 0.982431 0.982431 0.985238 0.985238 0.987801 0.987801 0.990121 0.990121 0.992196 0.992196 0.994027 0.994027 0.995614 0.995614 0.996957 0.996957 0.998055 0.998055 0.99891 0.99891 0.99952 0.99952 0.999886 0.999886 1.00001 1.00001 0.999886 0.999886 0.99952 0.99952 0.99891 0.99891 0.998055 0.998055 0.996957 0.996957 0.995614 0.995614 0.994027 0.994027 0.992196 0.992196 0.990121 0.990121 0.987801 0.987801 0.985238 0.985238 0.982431 0.982431 0.979379 0.979379 0.976083 0.976083 0.972543 0.972543 0.968759 0.968759 0.964731 0.964731 0.960458 0.960458 0.955942 0.955942 0.951181 0.951181 0.946176 0.946176 0.940927 0.940927 0.935434 0.935434 0.929697 0.929697 0.923716 0.923716 0.91749 0.91749 0.911021 0.911021 0.904307 0.904307 0.897349 0.897349 0.890147 0.890147 0.882701 0.882701 0.875011 
SCALARS solution_1 double 1
LOOKUP_TABLE default
0 0.0136014 0.0136014 0.027338 0.027338 0.0412042 0.0412042 0.0551944 0.0551944 0.0693034 0.0693034 0.0835261 0.0835261 0.0978572 0.0978572 0.112292 0.112292 0.126826 0.126826 0.141453 0.141453 0.15617 0.15617 0.170972 0.170972 0.185854 0.185854 0.200812 0.200812 0.215841 0.215841 0.230938 0.230938 0.246098 0.246098 0.261316 0.261316 0.27659 0.27659 0.291914 0.291914 0.307284 0.307284 0.322698 0.322698 0.33815 0.33815 0.353636 0.353636 0.369153 0.369153 0.384697 0.384697 0.400265 0.400265 0.415851 0.415851 0.431452 0.431452 0.447066 0.447066 0.462686 0.462686 0.478311 0.478311 0.493935 0.493935 0.509556 0.509556 0.525169 0.525169 0.54077 0.54077 0.556357 0.556357 0.571924 0.571924 0.587468 0.587468 0.602985 0.602985 0.618472 0.618472 0.633924 0.633924 0.649337 0.649337 0.664707 0.664707 0.680031 0.680031 0.695305 0.695305 0.710524 0.710524 0.725683 0.725683 0.74078 0.74078 0.75581 0.75581 0.770768 0.770768 0.78565 0.78565 0.800451 0.800451 0.815168 0.815168 0.829796 0.829796 0.844329 0.844329 0.858764 0.858764 0.873095 0.873095 0.887318 0.887318 0.901427 0.901427 0.915417 0.915417 0.929283 0.929283 0.94302 0.94302 0.956621 
